ITEM: TIMESTEP
0
ITEM: NUMBER OF ATOMS
512
ITEM: BOX BOUNDS pp pp pp
1.8332206818000001e+00 2.6666779318200000e+01
1.8332206818000001e+00 2.6666779318200000e+01
1.8332206818000001e+00 2.6666779318200000e+01
ITEM: ATOMS id type xs ys zs
236 1 0.148811 0.0790347 0.267139
266 1 0.103924 0.182434 0.193356
234 1 0.0823519 0.0286676 0.24804
237 1 0.182152 0.0440452 0.0971084
233 1 0.0647936 0.0312153 0.167002
267 1 0.0362379 0.181331 0.0712357
270 1 0.221335 0.178951 0.122809
238 1 0.219841 0.0396061 0.274692
240 1 0.25962 0.0715883 0.20917
272 1 0.21614 0.194816 0.0369555
220 1 0.382816 0.125143 0.124615
222 1 0.361339 0.14903 0.200929
239 1 0.251112 0.0212843 0.145335
148 1 0.511112 0.00131695 0.00667202
217 1 0.479357 0.0281729 0.145623
218 1 0.404805 0.0444082 0.114826
219 1 0.474542 0.00662828 0.227864
221 1 0.495317 0.0669474 0.284677
223 1 0.429122 0.111397 0.303921
224 1 0.429459 0.175415 0.24366
152 1 0.485265 0.137048 0.0318396
497 1 0.5583 0.170338 0.324728
84 1 0.603803 0.092896 0.194985
82 1 0.613303 0.0148947 0.166282
86 1 0.677281 0.115392 0.22172
81 1 0.622744 0.0158445 0.0859833
451 1 0.776941 0.00968387 0.255358
85 1 0.727447 0.091816 0.048016
83 1 0.701729 0.0118674 0.0658327
87 1 0.764904 0.124373 0.116814
88 1 0.712428 0.165129 0.166666
453 1 0.792392 0.0697514 0.316181
489 1 0.622203 0.00744336 0.332631
454 1 0.914039 0.121473 0.193001
456 1 0.893852 0.157602 0.26268
455 1 0.811813 0.141847 0.283285
157 1 0.866372 0.0804918 0.0334571
159 1 0.950055 0.0731876 0.0430538
452 1 0.945584 0.0452084 0.209764
268 1 0.176796 0.221206 0.182228
265 1 0.0496972 0.223435 0.140829
135 1 0.0457397 0.324229 0.293823
366 1 0.0946264 0.391238 0.149787
368 1 0.171272 0.392829 0.143224
367 1 0.185087 0.325194 0.0903629
136 1 0.00737924 0.393315 0.317855
269 1 0.0833492 0.208715 0.00359115
286 1 0.220706 0.282685 0.324419
288 1 0.250375 0.201483 0.310543
382 1 0.342156 0.327269 0.176428
384 1 0.379343 0.325447 0.249685
365 1 0.215603 0.367953 0.0288984
380 1 0.306734 0.399671 0.166557
1 1 0.338252 0.28346 0.0272472
4 1 0.465556 0.347082 0.0293853
383 1 0.45904 0.328825 0.235943
317 1 0.574117 0.234129 0.119912
2 1 0.421791 0.270232 0.035806
319 1 0.611295 0.209022 0.0457075
315 1 0.627888 0.279951 0.157842
313 1 0.615962 0.357416 0.144985
314 1 0.657475 0.38578 0.0783682
39 1 0.700881 0.283132 0.280793
37 1 0.765197 0.273641 0.226295
35 1 0.796314 0.352664 0.222891
468 1 0.779187 0.293531 0.0833592
316 1 0.602899 0.394843 0.0183666
466 1 0.788354 0.354241 0.0218279
471 1 0.95378 0.340591 0.123029
133 1 0.999023 0.261079 0.306441
472 1 0.898009 0.281826 0.150468
470 1 0.853373 0.253412 0.0873242
33 1 0.862024 0.36482 0.265529
362 1 0.0425746 0.400047 0.0196767
164 1 0.15565 0.455387 0.288983
173 1 0.163422 0.554843 0.161364
364 1 0.0456298 0.440546 0.0847363
168 1 0.114462 0.574028 0.321513
162 1 0.227836 0.437267 0.314544
390 1 0.219241 0.5679 0.0131421
171 1 0.239189 0.530279 0.135326
161 1 0.277515 0.500315 0.2752
169 1 0.305176 0.574306 0.164097
163 1 0.293286 0.568888 0.309744
378 1 0.35866 0.445136 0.114112
386 1 0.360332 0.536411 0.015416
377 1 0.423272 0.484966 0.146488
381 1 0.487498 0.407221 0.228493
379 1 0.485502 0.431837 0.151506
67 1 0.558132 0.53582 0.138949
65 1 0.567641 0.50167 0.0675292
66 1 0.505527 0.516436 0.015639
279 1 0.428792 0.588503 0.265659
125 1 0.605285 0.473955 0.271447
127 1 0.682022 0.435362 0.268303
128 1 0.745058 0.483264 0.290412
295 1 0.734281 0.57291 0.0426196
293 1 0.729599 0.545557 0.126585
465 1 0.808761 0.423388 0.067238
469 1 0.920048 0.414194 0.130563
203 1 0.992463 0.526662 0.213494
467 1 0.888013 0.440458 0.0574992
291 1 0.807213 0.535048 0.148753
201 1 0.913676 0.509301 0.23407
397 1 0.89815 0.572251 0.0306425
202 1 0.905475 0.526853 0.312214
175 1 0.1251 0.60985 0.112435
176 1 0.13947 0.686736 0.144277
400 1 0.0207507 0.633639 0.0316234
445 1 0.0716971 0.771346 0.0710568
101 1 0.144504 0.739 0.276617
207 1 0.030272 0.65334 0.226134
447 1 0.0108561 0.782984 0.0248301
165 1 0.23713 0.626502 0.290624
174 1 0.206241 0.713428 0.0914464
172 1 0.279499 0.707982 0.134904
170 1 0.321735 0.637138 0.107203
103 1 0.220527 0.761508 0.292115
280 1 0.383375 0.652791 0.237025
278 1 0.430144 0.704554 0.189918
71 1 0.559393 0.67053 0.136783
72 1 0.54191 0.693032 0.0562832
276 1 0.471039 0.761141 0.237722
274 1 0.549893 0.727751 0.252238
70 1 0.4788 0.65275 0.0218136
241 1 0.435124 0.782303 0.0616313
273 1 0.555551 0.705806 0.33114
69 1 0.605731 0.604778 0.139463
296 1 0.710437 0.649563 0.0519175
294 1 0.772615 0.699904 0.0429408
461 1 0.70201 0.705955 0.196288
459 1 0.703948 0.786858 0.218182
463 1 0.673854 0.672191 0.271796
464 1 0.739411 0.63882 0.305246
292 1 0.801452 0.714364 0.118542
289 1 0.828239 0.604175 0.19211
205 1 0.988022 0.602859 0.173891
399 1 0.935434 0.64454 0.0236355
290 1 0.859288 0.663058 0.144173
208 1 0.977825 0.7014 0.269188
448 1 0.931237 0.769554 0.0593185
460 1 0.825201 0.737012 0.331297
100 1 0.133243 0.91401 0.30657
441 1 0.0764078 0.851023 0.183962
443 1 0.0971761 0.850245 0.105136
235 1 0.119711 0.986016 0.124202
248 1 0.258497 0.873439 0.0288019
328 1 0.377014 0.889372 0.271622
246 1 0.30379 0.914977 0.092228
102 1 0.216235 0.890702 0.304385
104 1 0.229657 0.831656 0.251566
326 1 0.349983 0.971267 0.266287
244 1 0.332463 0.854388 0.140334
298 1 0.582277 0.826863 0.00726216
242 1 0.416314 0.842224 0.111032
327 1 0.459019 0.889158 0.283532
457 1 0.778214 0.816473 0.227732
297 1 0.609767 0.827455 0.0835569
458 1 0.797917 0.815273 0.309426
490 1 0.657262 0.941601 0.286564
301 1 0.744863 0.873378 0.0958925
303 1 0.760837 0.893995 0.0187539
299 1 0.659012 0.890715 0.10771
492 1 0.620549 0.876102 0.316758
444 1 0.932328 0.832238 0.181149
160 1 0.964959 0.994425 0.0634245
450 1 0.886283 0.991619 0.179683
449 1 0.848492 0.956998 0.246357
446 1 0.908991 0.836441 0.0997034
442 1 0.998616 0.887866 0.187846
16 1 0.970221 0.951914 0.326595
352 1 0.169114 0.0966291 0.411194
351 1 0.09546 0.122711 0.411521
349 1 0.0667016 0.125821 0.496778
350 1 0.177445 0.0165362 0.391322
347 1 0.025879 0.0563552 0.521277
345 1 0.0834791 0.000688867 0.552869
90 1 0.0325876 0.191809 0.646138
403 1 0.208453 0.0535911 0.633623
407 1 0.278034 0.0393097 0.515906
408 1 0.346033 0.075591 0.542254
405 1 0.217064 0.0797183 0.553598
285 1 0.313211 0.152031 0.419238
322 1 0.372949 0.035701 0.38876
406 1 0.385726 0.0301618 0.601839
287 1 0.32025 0.199952 0.34843
502 1 0.525206 0.139319 0.498165
504 1 0.445432 0.162868 0.483358
500 1 0.556397 0.0929295 0.442053
498 1 0.601935 0.139434 0.387102
216 1 0.616623 0.00827501 0.628001
195 1 0.729549 0.104082 0.497955
193 1 0.668096 0.125264 0.561453
197 1 0.767983 0.169955 0.463084
194 1 0.710228 0.114962 0.628041
491 1 0.673551 0.0312257 0.39412
196 1 0.735888 0.186802 0.660205
199 1 0.842264 0.181693 0.508332
484 1 0.896211 0.0877927 0.621118
10 1 0.90733 0.0625798 0.456838
12 1 0.952576 0.0651809 0.38934
9 1 0.833712 0.0267423 0.439404
486 1 0.859527 0.0182497 0.593861
131 1 0.018082 0.217927 0.375745
89 1 0.103193 0.215469 0.61448
91 1 0.140292 0.280861 0.656416
93 1 0.113135 0.350263 0.61004
282 1 0.188925 0.283811 0.456463
130 1 0.0241386 0.294719 0.47835
95 1 0.0491233 0.389261 0.64713
284 1 0.15916 0.277697 0.379711
281 1 0.201934 0.207903 0.487254
73 1 0.372448 0.210323 0.595425
283 1 0.28733 0.20115 0.482115
74 1 0.289421 0.228959 0.622525
76 1 0.266962 0.302317 0.588786
78 1 0.276007 0.358961 0.648369
138 1 0.336639 0.337721 0.484503
137 1 0.354467 0.347341 0.403768
80 1 0.345552 0.396385 0.629095
140 1 0.276638 0.395286 0.485713
75 1 0.433896 0.228214 0.648697
501 1 0.457405 0.242602 0.373898
77 1 0.44859 0.313689 0.632213
503 1 0.455478 0.243214 0.457861
139 1 0.423853 0.38949 0.391703
499 1 0.534089 0.249136 0.345519
22 1 0.555695 0.398261 0.475841
18 1 0.620454 0.283417 0.470837
19 1 0.614474 0.282411 0.605785
21 1 0.612373 0.362381 0.632806
17 1 0.668064 0.279602 0.540244
38 1 0.753654 0.320234 0.397358
20 1 0.628044 0.360438 0.444372
40 1 0.72914 0.255269 0.353741
92 1 0.975915 0.230923 0.6069
59 1 0.800431 0.380924 0.523171
36 1 0.835894 0.324073 0.39801
198 1 0.812603 0.204184 0.645014
129 1 0.972664 0.24021 0.440906
200 1 0.824944 0.239852 0.570597
132 1 0.985193 0.367581 0.454213
96 1 0.97846 0.365575 0.611896
94 1 0.950494 0.297569 0.653528
34 1 0.854233 0.387071 0.345406
134 1 0.0318201 0.408778 0.398887
329 1 0.164647 0.500438 0.558516
331 1 0.119117 0.456327 0.504754
335 1 0.0128423 0.535161 0.457333
333 1 0.0358683 0.478028 0.512096
353 1 0.0237974 0.568802 0.658618
166 1 0.110431 0.49905 0.350354
142 1 0.294204 0.46981 0.513371
144 1 0.314952 0.526323 0.454696
330 1 0.201424 0.573045 0.526953
143 1 0.394707 0.515238 0.448829
434 1 0.36148 0.573713 0.606303
433 1 0.43527 0.545156 0.613686
141 1 0.411938 0.472309 0.373898
121 1 0.574253 0.515797 0.395939
24 1 0.568424 0.446588 0.539702
23 1 0.54101 0.407323 0.606422
123 1 0.569802 0.45225 0.341932
122 1 0.640774 0.512434 0.444787
63 1 0.717236 0.470934 0.591917
61 1 0.768828 0.400799 0.595035
124 1 0.704297 0.540379 0.40232
126 1 0.750847 0.475889 0.374743
64 1 0.767124 0.537592 0.592046
62 1 0.788339 0.564557 0.516913
57 1 0.878965 0.41103 0.513613
58 1 0.864536 0.467891 0.451701
355 1 0.962748 0.522642 0.625714
60 1 0.866243 0.537025 0.491642
167 1 0.183669 0.62048 0.352458
336 1 0.0216608 0.608306 0.493093
332 1 0.147199 0.637337 0.533177
334 1 0.096431 0.641111 0.469857
99 1 0.0948174 0.747415 0.346046
413 1 0.0599424 0.761966 0.574975
411 1 0.0175746 0.775763 0.498601
415 1 0.00574132 0.761975 0.639874
309 1 0.187162 0.683986 0.664187
423 1 0.322072 0.73892 0.550957
421 1 0.288022 0.671874 0.508554
419 1 0.255096 0.697725 0.433182
417 1 0.316753 0.683448 0.378459
418 1 0.358472 0.754362 0.361378
436 1 0.345423 0.635666 0.654908
277 1 0.455427 0.615672 0.340908
264 1 0.566674 0.62242 0.619436
424 1 0.401187 0.727016 0.540993
420 1 0.434964 0.75392 0.40905
263 1 0.507792 0.670724 0.587634
261 1 0.516062 0.653892 0.502232
259 1 0.559157 0.713804 0.470555
422 1 0.42646 0.786408 0.484054
275 1 0.53586 0.627901 0.349699
262 1 0.632348 0.663602 0.64943
260 1 0.685947 0.658519 0.590994
257 1 0.640457 0.691685 0.469118
258 1 0.67798 0.723007 0.53445
462 1 0.769204 0.689936 0.368207
206 1 0.954425 0.653866 0.335507
204 1 0.886012 0.608942 0.334313
370 1 0.833492 0.697354 0.485425
369 1 0.873121 0.66781 0.55574
372 1 0.851558 0.779334 0.47324
371 1 0.821448 0.683169 0.619723
373 1 0.848488 0.757272 0.65208
14 1 0.0109171 0.99753 0.379254
45 1 0.19571 0.804799 0.534506
97 1 0.0485526 0.81498 0.341891
409 1 0.0112809 0.856126 0.487595
98 1 0.0994777 0.880314 0.371576
47 1 0.181642 0.865819 0.593176
348 1 0.176161 0.972824 0.46207
346 1 0.100224 0.955392 0.488771
324 1 0.321503 0.980175 0.345693
43 1 0.212071 0.837515 0.456723
48 1 0.248932 0.855731 0.645241
41 1 0.295463 0.85224 0.450276
46 1 0.301943 0.916108 0.623261
42 1 0.322201 0.913543 0.493349
44 1 0.352684 0.886895 0.568856
321 1 0.418992 0.985176 0.438614
214 1 0.535457 0.997664 0.599625
323 1 0.487638 0.969795 0.393167
212 1 0.537271 0.952833 0.531308
210 1 0.504382 0.877984 0.547191
209 1 0.570068 0.821425 0.559586
325 1 0.482665 0.895477 0.364028
211 1 0.596778 0.829381 0.636964
488 1 0.793444 0.994969 0.639335
375 1 0.786615 0.811609 0.637269
494 1 0.668053 0.834087 0.373206
374 1 0.790289 0.826669 0.499615
496 1 0.635904 0.858099 0.454901
495 1 0.684808 0.917156 0.48098
493 1 0.644806 0.991953 0.462213
213 1 0.661996 0.882205 0.645907
11 1 0.850185 0.948399 0.459918
15 1 0.933817 0.886521 0.357939
412 1 0.965333 0.923992 0.601353
410 1 0.94113 0.894175 0.525648
376 1 0.807317 0.862126 0.576935
13 1 0.849972 0.903661 0.388902
414 1 0.945274 0.877278 0.665705
190 1 0.0948067 0.0210716 0.716436
192 1 0.103876 0.097609 0.746046
189 1 0.0322624 0.118583 0.860133
191 1 0.0336464 0.131647 0.78183
55 1 0.195846 0.0496661 0.849454
51 1 0.136 0.00418162 0.964882
271 1 0.152973 0.162028 0.998152
227 1 0.231708 0.177744 0.892132
53 1 0.202036 0.0488568 0.930031
229 1 0.282345 0.139212 0.83172
402 1 0.315674 0.0650699 0.706417
231 1 0.341413 0.190341 0.809987
147 1 0.373097 0.0360116 0.916517
149 1 0.360915 0.0972685 0.969551
401 1 0.25288 0.111148 0.675217
404 1 0.386743 0.0768467 0.668141
250 1 0.575613 0.186762 0.687474
151 1 0.421766 0.155356 0.969414
249 1 0.578314 0.11893 0.739956
253 1 0.493143 0.129244 0.837539
251 1 0.502821 0.0988052 0.759475
150 1 0.534659 0.080874 0.994862
480 1 0.738539 0.103565 0.77463
477 1 0.698821 0.171897 0.89069
475 1 0.627637 0.13694 0.919968
478 1 0.685186 0.0448512 0.759225
473 1 0.652529 0.0586953 0.934884
479 1 0.692237 0.16755 0.808715
474 1 0.629213 0.00705646 0.871141
155 1 0.845492 0.0724738 0.950477
481 1 0.904339 0.0893722 0.754534
31 1 0.860574 0.182005 0.857177
187 1 0.981795 0.0641923 0.883903
482 1 0.946589 0.0728683 0.684448
483 1 0.890692 0.0121888 0.78351
363 1 0.159834 0.360424 0.968131
26 1 0.0191823 0.301755 0.902301
225 1 0.16933 0.20653 0.850097
226 1 0.176243 0.293644 0.846364
232 1 0.314816 0.243356 0.748717
230 1 0.285111 0.308205 0.784428
228 1 0.204026 0.314712 0.775984
3 1 0.309448 0.288652 0.947549
5 1 0.297657 0.366829 0.933382
7 1 0.358414 0.391413 0.884024
255 1 0.455432 0.209029 0.837912
256 1 0.517595 0.26084 0.850518
254 1 0.542988 0.292036 0.77423
6 1 0.478488 0.373801 0.950388
79 1 0.402332 0.367413 0.679214
320 1 0.579205 0.262999 0.986245
252 1 0.603408 0.250408 0.741372
105 1 0.699551 0.321176 0.842729
106 1 0.689191 0.341138 0.767381
108 1 0.747741 0.302532 0.728808
107 1 0.744312 0.374006 0.89395
318 1 0.621131 0.329417 0.967923
28 1 0.984388 0.316461 0.826238
30 1 0.960665 0.248088 0.784896
25 1 0.953893 0.307174 0.96112
27 1 0.92549 0.230332 0.981174
29 1 0.855641 0.217382 0.935958
32 1 0.879702 0.241374 0.801777
110 1 0.801314 0.355512 0.702991
112 1 0.866292 0.372581 0.757882
109 1 0.824687 0.361501 0.881595
432 1 0.114487 0.43441 0.791005
431 1 0.123167 0.473792 0.718157
396 1 0.0556101 0.543964 0.940083
430 1 0.141997 0.480703 0.85132
429 1 0.192105 0.441866 0.679781
392 1 0.195794 0.585628 0.933448
361 1 0.104278 0.424124 0.96652
428 1 0.218512 0.468852 0.863064
426 1 0.27227 0.519318 0.827499
425 1 0.297184 0.469336 0.766188
388 1 0.278945 0.515602 0.999419
427 1 0.254258 0.494303 0.697111
385 1 0.383827 0.564363 0.941103
8 1 0.411897 0.427453 0.933763
439 1 0.433549 0.549662 0.794054
437 1 0.485969 0.541215 0.733255
435 1 0.452601 0.493849 0.673091
68 1 0.511973 0.594657 0.974523
179 1 0.580465 0.444935 0.752872
177 1 0.549039 0.461215 0.828598
181 1 0.615527 0.518626 0.728543
183 1 0.695551 0.507764 0.733332
178 1 0.604347 0.441991 0.884239
184 1 0.721086 0.551246 0.797989
182 1 0.723595 0.499432 0.862311
180 1 0.654552 0.50491 0.904343
394 1 0.992283 0.518076 0.884382
393 1 0.930497 0.480927 0.934456
111 1 0.850068 0.415517 0.824379
395 1 0.87718 0.536513 0.958396
360 1 0.887987 0.547708 0.799137
359 1 0.864944 0.515097 0.724087
357 1 0.930417 0.478941 0.689532
310 1 0.0963573 0.639398 0.821904
305 1 0.148031 0.786854 0.749042
306 1 0.082213 0.765533 0.806283
308 1 0.111282 0.707916 0.861498
398 1 0.0488663 0.622898 0.957979
307 1 0.127625 0.73772 0.682831
311 1 0.160098 0.611236 0.703593
312 1 0.168572 0.61328 0.788867
245 1 0.345764 0.791843 0.957751
510 1 0.378525 0.768706 0.690731
508 1 0.351982 0.765047 0.776363
389 1 0.302077 0.651158 0.87815
391 1 0.228705 0.660206 0.912826
387 1 0.363473 0.641096 0.934953
438 1 0.31926 0.608845 0.734274
440 1 0.386781 0.624649 0.778689
341 1 0.471875 0.734248 0.84304
339 1 0.510742 0.690761 0.784811
337 1 0.592419 0.688717 0.800262
300 1 0.637414 0.774171 0.968747
338 1 0.626054 0.747938 0.749956
115 1 0.753635 0.721455 0.78565
113 1 0.738753 0.700971 0.863443
354 1 0.995104 0.642 0.683335
356 1 0.987164 0.642213 0.771002
118 1 0.924102 0.756084 0.873398
358 1 0.908709 0.630197 0.790038
116 1 0.865791 0.718401 0.929281
114 1 0.813479 0.665369 0.889411
49 1 0.151136 0.921598 0.969608
188 1 0.0896651 0.96166 0.773546
185 1 0.00971396 0.988132 0.87671
50 1 0.121114 0.888302 0.89757
186 1 0.0120034 0.958534 0.792895
416 1 0.0179077 0.83373 0.67808
52 1 0.192537 0.864407 0.851726
247 1 0.295624 0.862164 0.955681
54 1 0.202644 0.925264 0.790719
506 1 0.312174 0.835911 0.791611
505 1 0.35867 0.883741 0.841887
56 1 0.246762 0.992673 0.820913
507 1 0.391698 0.945174 0.795257
243 1 0.427485 0.804416 0.980602
145 1 0.403486 0.965416 0.945597
343 1 0.477678 0.811038 0.828728
146 1 0.481218 0.974983 0.937094
344 1 0.539902 0.853627 0.873939
512 1 0.453077 0.803199 0.684068
342 1 0.593718 0.870196 0.813574
511 1 0.449949 0.890926 0.683897
509 1 0.467872 0.920054 0.757105
215 1 0.627342 0.944552 0.682432
117 1 0.777231 0.801672 0.781209
476 1 0.689458 0.986677 0.823448
302 1 0.689085 0.821184 0.920906
340 1 0.65002 0.8098 0.797111
304 1 0.758867 0.834359 0.961413
156 1 0.901881 0.909402 0.974252
154 1 0.867834 0.955045 0.90927
487 1 0.815938 0.940811 0.696972
119 1 0.858215 0.806755 0.772171
485 1 0.817056 0.973957 0.776644
120 1 0.896415 0.827454 0.850927
153 1 0.804639 0.998768 0.940707
158 1 0.975358 0.948166 0.997861
