# LAMMPS data file written by OVITO Basic 3.4.3
512 atoms
1 atom types
1.8332206818 26.6667793182 xlo xhi
1.8332206818 26.6667793182 ylo yhi
1.8332206818 26.6667793182 zlo zhi

Atoms  # atomic

236 1 5.528727376 3.7959335386 8.4672327024
266 1 4.4140234295 6.3637061181 6.6349382455
234 1 3.8783114193 2.5451392074 7.992936566
237 1 6.3567030545 2.9270197387 4.2447678273
233 1 3.4422763467 2.6084076647 5.9804746412
267 1 2.7331366963 6.3363147029 3.6022566148
270 1 7.3297563826 6.2772108333 4.8830051844
238 1 7.292655046 2.8167810885 8.6548005707
240 1 8.280509175 3.6110129275 7.0276561418
272 1 7.2007460455 6.6711952411 2.750957258
220 1 11.3399042648 4.9409667102 4.9278545913
222 1 10.8065539259 5.5341659254 6.8230027851
239 1 8.0692252581 2.3617855939 5.4424059262
148 1 14.5259505036 1.8659252368 1.9989106817
217 1 13.7373608491 2.5328540459 5.4495579911
218 1 11.8859693856 2.9360343204 4.6847588858
219 1 13.6177872642 1.9978244618 7.4918946869
221 1 14.1337044449 3.4957628653 8.9027636537
223 1 12.489847031 4.5996046132 9.3806606561
224 1 12.4982159402 6.18939937 7.8841655791
152 1 13.8840775135 5.2366102258 2.6239112554
497 1 15.6977964685 6.0633193928 9.8973725107
84 1 16.8277978871 4.1401589449 6.6753921125
82 1 17.0637166942 2.2031090876 5.962594479
86 1 18.6525181086 4.69881468 7.3393173027
81 1 17.2981703213 2.2266960016 3.9684920041
451 1 21.1274305623 2.0737056353 8.1746685481
85 1 19.8983184112 4.1133387016 3.0256288333
83 1 19.2596489502 2.1279304556 3.4680808974
87 1 20.828509017 4.9218448701 4.7341280004
88 1 19.525343194 5.9339613859 5.9721305655
453 1 21.5111338768 3.5653961637 9.685120085
489 1 17.284735366 2.0180657988 10.0936321246
454 1 24.5320617843 4.84982755 6.6261223322
456 1 24.0307467361 5.74703919 8.3564998644
455 1 21.9934264191 5.3557864737 8.8681953401
157 1 23.3483205447 3.8321185168 2.6640795365
159 1 25.4264672321 3.6507292379 2.9023997486
452 1 25.3154363914 2.9559061341 7.0424072756
268 1 6.2236945145 7.3265528535 6.358590405
265 1 3.0673790121 7.3819068557 5.330505911
135 1 2.9691002038 9.8849805649 9.129891381
366 1 4.1831309348 11.5490524956 5.5529649293
368 1 6.0865139366 11.5885626874 5.3899822839
367 1 6.4295895491 9.908944949 4.0772530575
136 1 2.016473471 11.6006317969 9.7266914622
269 1 3.9030779273 7.0163568726 1.9224017159
286 1 7.3141360742 8.8532952049 9.8896989411
288 1 8.0509229254 6.8367605765 9.5451084814
382 1 10.3301717706 9.9604745832 6.2145557649
384 1 11.2536573156 9.9152278393 8.0337877699
365 1 7.1874104245 10.9708030827 2.5508707927
380 1 9.4505174566 11.7584738956 5.9694237076
1 1 10.2332215577 8.8725412129 2.5098656207
4 1 13.3946329063 10.4525018804 2.5629622524
383 1 13.2328174383 9.9991156004 7.6925250071
317 1 16.0905888655 7.6474769318 4.811062365
2 1 12.3077922126 8.5440428992 2.7224110823
319 1 17.0138509084 7.0239807751 2.9683005632
315 1 17.4259141469 8.7854002556 5.7529992441
313 1 17.1297491266 10.7091318754 5.4337141807
314 1 18.1606646463 11.4135109326 3.7793819717
39 1 19.2385900924 8.8643958056 8.806310112
37 1 20.8357852497 8.6287005006 7.4529308334
35 1 21.6085310938 10.5911228047 7.3683973998
468 1 21.183206735 9.1226399819 3.9033262629
316 1 16.8053483501 11.6385774745 2.2893287199
466 1 21.410855967 10.6302853267 2.3752851164
471 1 25.518972238 10.2913072513 4.8884685673
133 1 1.808958295 8.316741337 9.4432412239
472 1 24.1339798393 8.8319631781 5.5698765827
470 1 23.025509116 8.126342443 4.0017913229
33 1 23.2403442318 10.8929995435 8.427250673
362 1 2.8904995073 11.7678113136 2.321863165
164 1 5.6985640836 13.1421004486 9.0096969572
173 1 5.8915705013 15.6119468563 5.8404630376
364 1 2.9663709957 12.7735456048 3.9375245565
168 1 4.6757194704 16.0883786787 9.8175326197
162 1 7.4911993473 12.6921163661 9.6444675495
390 1 7.2777549108 15.9361986314 2.1595857928
171 1 7.7731347385 15.001935322 5.1938468378
161 1 8.7249057068 14.257822571 8.6674160185
169 1 9.4118267722 16.095282408 5.9083331534
163 1 9.11655576 15.9607341873 9.5252664681
378 1 10.7400248223 12.887531639 4.6670277249
386 1 10.7815465324 15.1542147035 2.2160548217
377 1 12.3445707129 13.8766522795 5.4710390193
381 1 13.9395308499 11.9459672633 7.5075149953
379 1 13.8899630669 12.5572701427 5.5956538166
67 1 15.6936244307 15.1395380704 5.2838188208
65 1 15.9297667397 14.2914720429 3.5102110297
66 1 14.3872550786 14.6581643697 2.2215927053
279 1 12.4816519566 16.44784444 8.4304790356
125 1 16.864601221 13.6032099653 8.574215673
127 1 18.7702540101 12.6448084369 8.4961389646
128 1 20.3356622123 13.8343855627 9.0451841125
295 1 20.0680309509 16.0606147602 2.8916170175
293 1 19.9517602294 15.3813424308 4.9767767018
465 1 21.9176343981 12.3474514057 3.5029794974
469 1 24.6812866381 12.1191316676 5.075564598
203 1 26.4796087868 14.9121123404 7.1350364493
467 1 23.8857435872 12.7713602517 3.2611304365
291 1 21.8791920494 15.1203665631 5.5272870296
201 1 24.5230472025 14.4809769289 7.6460117518
397 1 24.1374813711 16.044249445 2.5941830023
202 1 24.3193871881 14.9168555501 9.5866053579
175 1 4.9398988672 16.9779664162 4.6253818471
176 1 5.2967571048 18.8873194055 5.4161320212
400 1 27.1820930434 17.5687319426 2.61854224
445 1 3.6137148187 20.9884868018 3.5978138911
101 1 5.421769239 20.1852205141 8.7026051711
207 1 27.4185408052 18.0579778813 7.4489326305
447 1 2.1028162777 21.2774997572 2.4498404261
165 1 7.7220024412 17.3914948346 9.0504488269
174 1 6.9549186485 19.5501767526 4.1041602183
172 1 8.7741754871 19.4149331923 5.1833670761
170 1 9.8230456697 17.6556245643 4.4954526683
103 1 7.3096908672 20.7441742519 9.0874756629
280 1 11.353786224 18.0443442576 7.7193949176
278 1 12.5152269279 19.3298037533 6.5495604709
71 1 15.7249395481 18.4848667543 5.2300293328
72 1 15.2907744425 19.0436714907 3.2309328292
276 1 13.5307953083 20.7350603359 7.736703908
274 1 15.489020741 19.905867813 8.0971878451
70 1 13.7235285569 18.0433260817 2.3749299965
241 1 12.6388980499 21.2605881037 3.3637451842
273 1 15.6295290158 19.3608953687 10.0566052887
69 1 16.8756769882 16.8520106068 5.2965832699
296 1 19.4758995788 17.9641815303 3.1225169623
294 1 21.0200005877 19.2143277057 2.8995935565
461 1 19.2666271801 19.364595569 6.7077502394
459 1 19.3147546168 21.3737049633 7.2514561722
463 1 18.5674135032 18.5261152952 8.5828825849
464 1 20.1954271067 17.6973946099 9.4135651213
292 1 21.7361259181 19.5734209635 4.7770403897
289 1 22.4013424533 16.8370359709 6.6039956314
205 1 26.3693229529 16.8043550078 6.1515530266
399 1 25.0633757713 17.8394425653 2.420174257
290 1 23.1723996154 18.2993104041 5.4135493311
208 1 26.1160951554 19.2514787094 8.518116664
448 1 0.1255906893 20.9439850647 3.3063101298
460 1 22.3258981021 20.1358513995 10.0605041574
100 1 5.1421185352 24.5313416111 9.446444753
441 1 3.7306982634 22.9671502532 6.4016517957
443 1 4.2464490592 22.9478297446 4.4441217026
235 1 4.8060708197 1.4859481978 4.9175983316
248 1 8.2526210886 23.5238193036 2.5484743543
328 1 11.1958199575 23.9194923934 8.5785615457
246 1 9.37740746 24.5553556623 4.1235701277
102 1 7.2031052335 23.9525210264 9.3921834273
104 1 7.5364212576 22.4861987231 8.0804996937
326 1 10.524544034 25.9532366779 8.4460745104
244 1 10.0894600867 23.050715178 5.3182132995
298 1 16.2932307039 22.3671714766 2.013565958
242 1 12.171778812 22.7486397708 4.5905403643
327 1 13.2322959335 23.9141780118 8.8743292291
457 1 21.1590436825 22.1091508023 7.4886166572
297 1 16.9759052308 22.3818729433 3.9082358574
458 1 21.6483392883 22.079350532 9.5173693964
490 1 18.1553750983 0.382965691 8.9496245789
301 1 20.3308196684 23.5223044565 4.2145727033
303 1 20.727510934 24.0342979349 2.2989467571
299 1 18.1988338259 23.9528438626 4.5080432825
492 1 17.2436606601 -1.2436075661 9.6994490483
444 1 0.1526841018 22.5006518542 6.3317949952
160 1 25.79658659 1.6947735924 3.4082767215
450 1 23.8427815307 1.6250906269 6.2953889983
449 1 22.9042965163 0.7653279933 7.9511416868
446 1 -0.4268566561 22.6050273012 4.3092109119
442 1 1.7988510366 23.8820930541 6.4981053374
16 1 25.9272607756 25.4726328176 9.9437367647
352 1 6.032923117 4.2328651026 12.0446309917
351 1 4.2038321892 4.8805714956 12.0527515654
349 1 3.4896587765 4.957803863 14.1699862741
350 1 6.239811494 2.2438733741 11.5511385145
347 1 2.4758883458 3.2327208455 14.7783836271
345 1 3.9063038066 1.8503277008 15.5629254115
90 1 2.6424867572 6.5965207303 17.879126592
403 1 7.0098504802 3.164078406 17.5683346057
407 1 8.7377943237 2.8094204217 14.6450025837
408 1 10.4264514774 3.7104142127 15.2993171866
405 1 7.2236922537 3.8129097592 15.5810290758
285 1 9.6113644159 5.6086914349 12.2443921374
322 1 11.0948715417 27.5533621951 11.4875149373
406 1 11.4121699204 2.5822455107 16.779024778
287 1 9.7861678351 6.7987403983 10.4859775175
502 1 14.875954679 5.2930072375 14.2044304199
504 1 12.8948823723 5.8778127098 13.8367199172
500 1 15.6505382064 4.1409908691 12.8109697777
498 1 16.7814087996 5.2958630967 11.4463408971
216 1 17.1461641089 2.0387186279 17.428720339
195 1 19.9505185514 4.4179471318 14.1992153726
193 1 18.4244218725 4.9439715708 15.7760966789
197 1 20.9049715441 6.0538081398 13.3332443494
194 1 19.470709365 4.6881362498 17.4297136814
491 1 18.5598889349 2.6086659337 11.6206228116
196 1 20.1079384796 6.4721791022 18.2284602613
199 1 22.7496331131 6.3453044511 14.4569132106
484 1 24.0893291009 4.0134258451 17.2577909549
10 1 24.3654534394 28.220858451 13.1781339421
12 1 25.4890726334 28.2854530203 11.5019184013
9 1 22.5372565197 27.3308857933 12.7451856809
486 1 23.1783348359 2.2864256768 16.5809026472
131 1 2.2822610891 7.2451236148 11.1643061716
89 1 4.3958700982 7.1840827276 17.0929457927
91 1 5.31717029 8.807998794 18.1343659077
93 1 4.6427653381 10.5314974305 16.9826847923
282 1 6.5249007472 8.881257792 13.1688213576
130 1 2.4326680203 9.1521422496 13.7123534555
95 1 3.0531270328 11.4999565502 17.9037614822
284 1 5.7857298744 8.7294254145 11.2627960652
281 1 6.8479605115 6.996192023 13.9334714616
73 1 11.0824299288 7.0562892349 16.6197423329
283 1 8.9686470848 6.8284910015 13.8058518038
74 1 9.0205740559 7.5190874336 17.2927317719
76 1 8.4628371625 9.3408276281 16.4548723371
78 1 8.6874567004 10.7474997235 17.9345302613
138 1 10.1931650276 10.220034938 13.8651543418
137 1 10.635897711 10.4589337721 11.8602169853
80 1 10.4145065357 11.6768708219 17.4558882522
140 1 8.7031266759 11.6495787409 13.8952029478
75 1 12.6084024399 7.5005864324 17.9426756686
501 1 13.1922145699 7.8578916741 11.1184385888
77 1 12.9733067505 9.6232348569 17.533319288
503 1 13.1443603024 7.873089812 13.2035386726
139 1 12.3589990105 11.5056434351 11.5606001004
499 1 15.0965511804 8.0201541462 10.4136870283
22 1 15.6331050483 11.7234585779 13.6500460569
18 1 17.241301472 8.8714733699 13.5257789295
19 1 17.0927967913 8.8464908099 16.8770180004
21 1 17.0406214846 10.832430494 17.5480455883
17 1 18.4236271987 8.7767333437 15.2494017338
38 1 20.5491314824 9.7857704982 11.7010338744
20 1 17.429788182 10.7841788896 12.8685588002
40 1 19.9403616259 8.1724583614 10.6178685474
92 1 1.235104422 7.5678605428 16.9047074182
59 1 21.7107708547 11.2929191718 14.8254183872
36 1 22.5914433446 9.8811065298 11.7172253547
198 1 22.0130449304 6.9038360184 17.8512136721
129 1 1.1543705229 7.7984898018 12.7824856859
200 1 22.3195158775 7.7895993879 16.0031747391
132 1 1.4655101791 10.9615649989 13.1129458507
96 1 1.2983058288 10.9117488803 17.0287758772
94 1 0.6038105279 9.2229178917 18.0626465903
34 1 23.0468659764 11.4455710567 10.4108808362
134 1 2.623427001 11.9846331141 11.7390043856
329 1 5.9219916106 14.2608770987 15.7031605172
331 1 4.7913196859 13.1654439937 14.3680587378
335 1 2.1521406919 15.1231727552 13.1904265537
333 1 2.723958213 13.7043570496 14.5503867253
353 1 2.4241948101 15.9585985013 18.1890494038
166 1 4.5756153956 14.2264081193 10.5337572843
142 1 9.1393529669 13.5002748648 14.5820495125
144 1 9.6545996415 14.903693764 13.1249404595
330 1 6.8352953966 16.0639672906 14.9193389059
143 1 11.6352001105 14.6284137665 12.979241971
434 1 10.8100554577 16.0805561078 16.8898817837
433 1 12.6425237495 15.3713841738 17.0732279471
141 1 12.0631071594 13.5623339278 11.1184385888
121 1 16.0939662294 14.6422957258 11.6657950547
24 1 15.9492114161 12.9235899661 15.235941945
23 1 15.2684242397 11.9485002863 16.8928369772
123 1 15.9834320599 13.0641975751 10.3246090535
122 1 17.7459193835 14.5587804681 12.878864727
63 1 19.6447429439 13.5281877847 16.5326262092
61 1 20.9259559011 11.7864861497 16.610057245
124 1 19.3234215287 15.2527542642 11.8242579924
126 1 20.4794236833 13.6512380677 11.1394229459
64 1 20.8836395172 15.1835431363 16.5358297382
62 1 21.4104834637 15.8531800449 14.6700099772
57 1 23.6610495486 12.0405582881 14.5880592337
58 1 23.3027261311 13.4526192657 13.0505639514
355 1 0.9081209555 14.8122814346 17.3719259904
60 1 23.3451170157 15.1694625085 14.0424411169
167 1 6.394375563 17.2419471445 10.5860070917
336 1 2.3711354287 16.9396234017 14.0784746105
332 1 5.4886956795 17.6605664424 15.0739029749
334 1 4.2279455747 17.7542882927 13.501442042
99 1 4.1878741445 20.39419491 10.4267743137
413 1 3.321803787 20.7555480217 16.1118960588
411 1 2.2696605414 21.0981766302 14.2152578515
415 1 1.9757980887 20.7557715238 17.7235691807
309 1 6.4811191833 18.8190271193 18.3273474918
423 1 9.8314145789 20.1832338294 15.5154436474
421 1 8.9858319074 18.5182430571 14.4624262606
419 1 8.1681621557 19.1602153814 12.590671279
417 1 9.6993248806 18.8056666647 11.2317044498
418 1 10.7353561133 20.5667136419 10.8075224347
436 1 10.4113030067 17.619069566 18.0969169012
277 1 13.1430937909 17.1225473946 10.2991794894
264 1 15.9057526885 17.2901242483 17.2160209093
424 1 11.7961215705 19.8876151474 15.2680020692
420 1 12.6349246805 20.555737209 11.991387842
263 1 14.4435030889 18.4896844646 16.4262640775
261 1 14.6488766188 18.0716860057 14.3054285029
259 1 15.7190788283 19.5595141707 13.518775866
422 1 12.4237400979 21.3625298619 13.854004074
275 1 15.1405314127 17.4262369832 10.5174913034
262 1 17.5366718184 18.31281986 17.960878667
260 1 18.8677257278 18.1865908815 16.5097048346
257 1 17.7380471454 19.0102206872 13.4830900422
258 1 18.6698767661 19.7880574108 15.105516095
462 1 20.9352933192 18.9667867932 10.9771108066
206 1 25.5349898833 18.0710403331 10.1650534392
204 1 23.8360516364 16.955417545 10.1354021702
370 1 22.5317931368 19.1510021311 13.8880508829
369 1 23.515922232 18.4173194748 15.6342225584
372 1 22.9804362071 21.1868572681 13.5854539709
371 1 22.2326977566 18.7987381019 17.2231481406
373 1 22.9041971821 20.6389792975 18.0266875974
14 1 26.9378897612 26.6054404284 11.2514471289
45 1 6.6933964425 21.8192438388 15.1069067743
97 1 3.0389545208 22.0720742993 10.3235908776
409 1 2.1133655734 23.0938759029 13.9419397051
98 1 4.3036059778 23.6945500192 11.0607750657
47 1 6.3440379396 23.3345875868 16.5638916595
348 1 6.2079252047 1.1583438923 13.3080631209
346 1 4.3221392626 0.7254452981 13.9711439701
324 1 9.8172842841 26.1744540182 10.4180080675
43 1 7.0996982954 22.6316985432 13.1752780829
48 1 8.0150881003 23.0840666473 17.8568508899
41 1 9.1706184172 22.9973726941 13.0151761304
46 1 9.3315398772 24.5834424171 17.3110092711
42 1 9.834618108 24.5197443392 14.0848320015
44 1 10.5916194759 23.8579796686 15.9599395135
321 1 12.238283082 26.298646645 12.7255671695
214 1 15.1305234886 1.7752094888 16.7240432792
323 1 13.9430075481 25.9166816796 11.5969564302
212 1 15.1755715639 0.6618962216 15.0274890538
210 1 14.3588206539 -1.1968708088 15.4219204656
209 1 15.9900377865 -2.6014320517 15.7297324249
325 1 13.819510261 24.0711012688 10.8733313651
211 1 16.6533421377 -2.4038562592 17.6513035251
488 1 21.5372587805 1.7082830483 17.7101838926
375 1 21.3676704086 21.9883603731 17.6588777605
494 1 18.4233540295 -2.2869895322 11.1012537663
374 1 21.458908903 22.3623537662 14.2404390799
496 1 17.6249799529 -1.6906861223 13.1300313391
495 1 18.8394403045 -0.2240906499 13.7776657147
493 1 17.8460482919 1.6333850355 13.3116143198
213 1 18.2729371649 -1.0920483578 17.87339004
11 1 22.9463397311 25.385342859 13.2546213027
15 1 25.023219907 23.8486919177 10.7221198266
412 1 0.9723157046 24.7792301934 16.7669556685
410 1 0.3712690849 24.0387679755 14.8869311119
376 1 21.8817747395 23.2428772548 16.1605698337
13 1 22.9410501831 24.2743391127 11.4910413026
414 1 0.4741793519 23.6191553352 18.3650448338
190 1 4.1876084254 2.356503496 19.624876097
192 1 4.4128314187 4.2571995067 20.3601977683
189 1 2.634410884 4.7780585656 23.1933839724
191 1 2.6687805291 5.1024841756 21.2488418305
55 1 6.6967738065 3.0666066884 22.9281863997
51 1 5.2105846564 1.9370651873 25.794674406
271 1 5.6320846471 5.8569525205 1.7873282654
227 1 7.5873548863 6.2472367281 23.9880330152
53 1 6.8504935345 3.0465088894 24.929200054
229 1 8.844851795 5.2903500467 22.4877880709
402 1 9.6725294708 3.4491378589 19.376068673
231 1 10.3117204365 6.5600650662 21.948080341
147 1 11.0985469084 2.727516862 -0.2399592938
149 1 10.7960244971 4.24874368 1.0770636549
401 1 8.1131309898 4.5934210571 18.6012616436
404 1 11.4374256495 3.7415977123 18.4255393827
250 1 16.1277398692 6.4711857599 18.9056465718
151 1 12.3071713736 5.6912630173 1.0736614573
249 1 16.1948153111 4.7866758104 20.2089613962
253 1 14.0797162884 5.0428091342 22.6322945486
251 1 14.3200554689 4.2869054096 20.6936876272
150 1 15.1107063088 3.841609903 1.7056258575
480 1 20.1737722436 4.405108182 21.0700402083
477 1 19.1874329616 6.1020349107 23.9522230237
475 1 17.4196809237 5.2339282015 24.6792999534
478 1 18.8488273896 2.9470355869 20.6874792375
473 1 18.0378378653 3.290833856 25.049717314
479 1 19.0239288116 5.9940834313 21.9164920544
474 1 17.4588186121 2.008457695 23.4667517859
155 1 22.8297958404 3.6330030437 0.6033883574
481 1 24.2911762655 4.052650451 20.570985014
31 1 23.2043355718 6.3530525214 23.1199759731
187 1 1.3811257468 3.4273439279 23.7836776612
482 1 25.3403941179 3.6427998826 18.8305002234
483 1 23.9522726908 2.1359119613 21.290562209
363 1 5.8024676929 10.7838312198 1.0418000016
26 1 27.14314409 9.3268711681 24.240565473
225 1 6.0382871657 6.962095547 22.9441543779
226 1 6.2099615566 9.125446174 22.8514507035
232 1 9.6512222775 7.8766161773 20.4265282034
230 1 8.9135414182 9.4870476213 21.3133594158
228 1 6.8999123162 9.6486395874 21.1036648467
3 1 9.5179157347 9.0014770493 0.5306756978
5 1 9.2251032448 10.9428901628 0.1788586726
7 1 10.7339157669 11.5533983683 -1.0468761146
255 1 13.1432179587 7.02415461 22.6415574659
256 1 14.6869464642 8.3108061165 22.9546093061
254 1 15.3175450187 9.0855138117 21.0601067849
6 1 13.7157804866 11.1160297336 0.6011781707
79 1 11.8245559951 10.9573929611 18.7005213775
320 1 16.2169420118 8.3644217696 1.4916350828
252 1 16.8179886315 8.0517424328 20.2441257152
105 1 19.2055614595 9.8091637104 22.7611807179
106 1 18.948285792 10.3048912079 20.8900217418
108 1 20.4022906501 9.3461668432 19.9321168845
107 1 20.3171363776 11.1211206132 24.0331804248
318 1 17.2581137912 10.0138170671 1.0366346214
28 1 26.2790778008 9.6920734814 22.3516505024
30 1 25.6899512892 7.9941285768 21.3249815213
25 1 25.5217784302 9.4614442224 25.7012505584
27 1 24.8164308642 7.5531839096 26.1992627433
29 1 23.081831627 7.2315893253 25.076388556
32 1 23.6793518814 7.8273960641 21.7441968246
110 1 21.732698887 10.6618487797 19.2909889012
112 1 23.34633386 11.0857327921 20.6541277683
109 1 22.313133653 10.8105769624 23.7263618079
432 1 4.6763403094 12.621166889 21.476689731
431 1 4.8918955984 13.5991620953 19.6676146514
396 1 28.0477759973 15.3417825719 0.345268349
430 1 5.3595115075 13.770786819 22.9745258201
429 1 6.6038714636 12.8063259022 18.7146020052
392 1 6.6954824615 16.3764479589 0.1804976874
361 1 4.4228145093 12.3657289049 1.0017931387
428 1 7.2596512466 13.4764843156 23.2661711328
426 1 8.5946536917 14.7297346857 22.3829656199
425 1 9.2133569716 13.488503758 20.8603953063
388 1 8.7604176956 14.6374531818 1.8187923842
427 1 8.1473516336 14.1085232164 19.1449675764
385 1 11.3650109925 15.8483623345 0.3705985788
8 1 12.0620889835 12.4483998216 0.1883202584
439 1 12.5997851951 15.483284189 21.5524072513
437 1 13.9015603388 15.2735151192 20.0425517197
435 1 13.0729141542 14.0972487808 18.5484654979
68 1 14.5473321976 16.6006701598 1.2005361084
179 1 16.2482322957 12.8825400937 20.5297116395
177 1 15.467812882 13.2868304283 22.4102577008
181 1 17.1189465286 14.7125498632 19.9255359914
183 1 19.1062272249 14.4428077493 20.0444639037
178 1 16.841307343 12.8094300971 23.7920217369
184 1 19.7403521447 15.5226205459 21.6501273045
182 1 19.8026595433 14.2358945387 23.2474714631
180 1 18.0880761544 14.3719327729 24.2912755997
394 1 26.4751387462 14.6988914059 -1.0379857006
393 1 24.9407724923 13.7763495361 0.2055299145
111 1 22.9434342047 12.1519864657 22.3054849169
395 1 23.6167216465 15.1567477265 0.8000453083
360 1 -0.9484607217 15.4347594154 21.6786362298
359 1 -1.5207004134 14.6249122347 19.8148776542
357 1 0.1052271712 13.7270300887 18.9567540355
310 1 4.2261153414 17.7117484068 22.2440218593
305 1 5.5093572003 21.3736056291 20.4345991099
306 1 3.874862038 20.8441293254 21.8560968398
308 1 4.596748754 19.4132941774 23.2272817799
398 1 27.8803034446 17.3019946893 0.7896897143
307 1 5.0026036028 20.153433559 18.7903443591
311 1 5.8090237524 17.0123857285 19.3059387035
312 1 6.0194633283 17.0631455223 21.4235955826
245 1 10.4197712502 21.4975002531 0.784027663
510 1 11.2333434646 20.922926207 18.9865294723
508 1 10.5741863178 20.8320602159 21.1130767654
389 1 9.334867574 18.0037910564 -1.192748438
391 1 7.5127797097 18.2284850949 -0.3316199588
387 1 10.85954874 17.7539157894 0.2178721932
438 1 9.7615826121 16.9530086898 20.067857116
440 1 11.4383693247 17.3454782505 21.1708396228
341 1 13.5515561634 20.0672114435 22.7689039546
339 1 14.5167620869 18.987274479 21.3228706688
337 1 16.5450926556 18.9365146852 21.7065739833
300 1 17.6624786265 21.0586416049 1.0570974737
338 1 17.3803694004 20.4071828612 20.4572969825
115 1 20.5486596447 19.7495157278 21.3437060245
113 1 20.1790866251 19.2408251127 23.2755830515
354 1 1.7116355787 17.7763653264 18.8028604726
356 1 1.5144571231 17.7816548744 20.9799440576
118 1 24.7819618848 20.6094770298 23.5228011277
358 1 -0.4338597197 17.4832548338 21.4526756798
116 1 23.3338922472 19.6736740397 24.910574885
114 1 22.0347991278 18.3567007581 23.9204609022
49 1 5.5864653999 -0.1137799824 25.9120378041
188 1 4.0599242003 0.8811020437 21.0431206308
185 1 2.0744528771 1.5384960079 23.6050498739
50 1 4.8409123025 -0.9406381508 24.1230779071
186 1 2.1313078195 0.8034723394 21.5236251568
416 1 2.2779325998 22.5377035237 18.672360122
52 1 6.614599561 -1.5340360344 22.9846082449
247 1 9.1746166201 23.24382093 0.7326221966
54 1 6.8655923381 -0.0227401564 21.4695873332
506 1 9.5856120156 22.5918655151 21.4917388675
505 1 10.7402731579 23.7796546247 22.7402708615
56 1 7.961199278 1.6512651977 22.2194118027
507 1 11.5604759326 25.3052546324 21.5822820223
243 1 12.4491944955 21.8097325859 1.3514993114
145 1 11.8532139218 0.9743768899 0.4822005913
343 1 13.6956653041 21.9741804111 22.4134860634
146 1 13.7835761017 1.2119595454 0.2710408422
344 1 15.2409086567 23.0318168399 23.5362360829
512 1 13.0847349281 21.779510145 18.8210634711
342 1 16.5773514483 23.443284073 22.0371583159
511 1 13.0070555567 23.9580837435 18.8168169326
509 1 13.4521474281 24.6814356395 20.6348320932
215 1 17.4123550239 0.4562495225 18.7804357692
117 1 21.1346322943 21.741589301 21.2334201906
476 1 18.9549163521 1.5023631801 22.2823648738
302 1 18.9456534348 22.2261416971 -0.130964805
340 1 17.9755304666 21.9434364656 21.62832344
304 1 20.6785888235 22.5533238321 0.8749681547
156 1 24.2301353784 -0.4166500635 1.193806214
154 1 23.3846272075 0.7168280533 -0.4199280933
487 1 22.0958648485 0.3633471797 19.1415157117
119 1 23.1457532069 21.8678182795 21.0089744876
485 1 22.123628767 1.1864803142 21.1200549954
120 1 24.0943951468 22.3818481097 22.9647662316
153 1 21.8152704694 1.8026257376 0.3607644896
158 1 26.0548307663 0.5459980034 1.7801016999
