ITEM: TIMESTEP
0
ITEM: NUMBER OF ATOMS
512
ITEM: BOX BOUNDS pp pp pp
2.5208830869999999e-01 2.5085452691299999e+01
2.5208830869999999e-01 2.5085452691299999e+01
2.5208830869999999e-01 2.5085452691299999e+01
ITEM: ATOMS id type xs ys zs
1 1 0.0635581 0.069046 0.146897
3 1 0.0385456 0.0152747 0.0920044
25 1 0.0472271 0.197106 0.0754667
102 1 0.0566328 0.15017 0.323069
103 1 0.1634 0.119542 0.247713
105 1 0.135555 0.163741 0.320576
2 1 0.201268 0.126816 0.0801877
5 1 0.248626 0.061355 0.0683456
6 1 0.399923 0.146603 0.230607
107 1 0.324211 0.14755 0.199709
31 1 0.241799 0.19459 0.0444233
12 1 0.394459 0.0153014 0.101816
127 1 0.28632 0.224576 0.211223
108 1 0.20335 0.0463694 0.272213
8 1 0.530599 0.0998368 0.0956771
112 1 0.456245 0.188101 0.180059
11 1 0.463231 0.154735 0.104051
115 1 0.52172 0.0166761 0.233757
113 1 0.543187 0.170576 0.281467
116 1 0.584377 0.0141472 0.289782
133 1 0.493991 0.236134 0.320277
438 1 0.551711 0.245207 0.00564487
9 1 0.601259 0.14324 0.110828
13 1 0.620394 0.0952794 0.169921
14 1 0.693428 0.0613532 0.14598
15 1 0.747912 0.13584 0.0141837
119 1 0.754238 0.0864425 0.195955
96 1 0.778233 0.0164841 0.0342036
193 1 0.759546 0.017982 0.244189
19 1 0.798458 0.197621 0.0600742
17 1 0.770559 0.203488 0.136504
117 1 0.600532 0.148983 0.333068
137 1 0.67325 0.189761 0.316747
18 1 0.997715 0.0956464 0.204327
20 1 0.92758 0.108933 0.161012
21 1 0.928472 0.190895 0.133855
23 1 0.848463 0.00714394 0.0758063
22 1 0.965927 0.192998 0.0607798
123 1 0.881143 0.0355919 0.292256
121 1 0.809054 0.169472 0.327194
124 1 0.809557 0.234944 0.281799
27 1 0.0476722 0.278662 0.109559
28 1 0.128693 0.283629 0.209003
29 1 0.0517558 0.261136 0.194922
30 1 0.114985 0.370092 0.224621
429 1 0.109286 0.349491 0.0234623
26 1 0.175964 0.379019 0.0570894
46 1 0.0924186 0.403291 0.152607
49 1 0.155606 0.439433 0.112371
47 1 0.0157073 0.483547 0.0391895
144 1 0.0190765 0.489099 0.319571
32 1 0.231572 0.258379 0.0981727
33 1 0.302583 0.271374 0.140215
35 1 0.313094 0.369327 0.0277804
34 1 0.39827 0.344583 0.18573
146 1 0.308075 0.498369 0.194767
52 1 0.383664 0.41321 0.0416358
129 1 0.386389 0.328009 0.263455
125 1 0.225571 0.292945 0.315072
130 1 0.25071 0.361943 0.273682
131 1 0.334413 0.384793 0.292656
36 1 0.51037 0.360939 0.0781055
37 1 0.530519 0.391819 0.153291
55 1 0.450053 0.409992 0.172059
38 1 0.50198 0.423985 0.0282738
54 1 0.575761 0.447051 0.00937484
138 1 0.623777 0.395801 0.235774
39 1 0.616809 0.279075 0.170037
40 1 0.752752 0.281164 0.145851
41 1 0.679976 0.305053 0.121875
136 1 0.622568 0.311755 0.242351
59 1 0.609296 0.477995 0.0737368
154 1 0.707952 0.432129 0.249823
140 1 0.73743 0.375273 0.299496
43 1 0.884225 0.358754 0.149718
44 1 0.884994 0.326161 0.024053
45 1 0.899952 0.388787 0.0731334
142 1 0.889577 0.251176 0.262814
141 1 0.822549 0.401326 0.193688
162 1 0.861595 0.473065 0.223166
143 1 0.901008 0.329028 0.299303
160 1 0.964764 0.428923 0.304294
163 1 0.88676 0.460945 0.302129
104 1 0.0403764 0.0691247 0.363135
204 1 0.129265 0.0509594 0.477473
205 1 0.127425 0.132543 0.459519
206 1 0.187748 0.0164522 0.426975
306 1 0.0321811 0.0587865 0.62429
307 1 0.173263 0.0316126 0.613502
207 1 0.176 0.171354 0.519667
304 1 0.131089 0.176939 0.587904
242 1 0.00280793 0.210854 0.568228
226 1 0.0753026 0.238456 0.584964
305 1 0.097592 0.00354194 0.606796
211 1 0.368559 0.155046 0.499322
109 1 0.312644 0.143703 0.342705
208 1 0.263705 0.167655 0.405918
209 1 0.289749 0.127675 0.479101
111 1 0.379143 0.0194598 0.412531
128 1 0.359003 0.218802 0.350237
311 1 0.34295 0.055922 0.63513
212 1 0.372879 0.0337099 0.559146
332 1 0.27866 0.216615 0.630654
231 1 0.356205 0.232244 0.530118
331 1 0.356959 0.235588 0.61465
110 1 0.429323 0.0450197 0.351082
213 1 0.543055 0.164792 0.486661
114 1 0.50472 0.0549958 0.383712
216 1 0.599892 0.104853 0.482723
132 1 0.440721 0.199824 0.372065
214 1 0.528004 0.167382 0.571922
215 1 0.461878 0.0439888 0.557984
336 1 0.576638 0.22359 0.603075
120 1 0.699326 0.0697496 0.37803
217 1 0.682419 0.115674 0.446316
218 1 0.697085 0.0458966 0.597355
322 1 0.633141 0.0170406 0.640367
318 1 0.659899 0.193003 0.620221
219 1 0.699232 0.216978 0.551352
122 1 0.964206 0.0791042 0.389801
220 1 0.968175 0.120619 0.462529
224 1 0.816254 0.0248216 0.417856
223 1 0.834378 0.18944 0.405566
323 1 0.858735 0.112337 0.612166
346 1 0.962095 0.188309 0.64537
221 1 0.944441 0.0694179 0.518364
222 1 0.858338 0.0948117 0.534956
246 1 0.884661 0.200197 0.625587
126 1 0.0546612 0.346057 0.388788
225 1 0.00508156 0.279054 0.381456
227 1 0.0641716 0.356572 0.477191
229 1 0.198621 0.311635 0.390868
247 1 0.00583137 0.41115 0.492283
349 1 0.0789226 0.481789 0.600517
350 1 0.15319 0.4708 0.641741
230 1 0.275912 0.307372 0.435087
232 1 0.314805 0.379617 0.443218
228 1 0.203154 0.306337 0.560123
248 1 0.231121 0.383057 0.547553
333 1 0.232178 0.28612 0.638744
233 1 0.307891 0.395143 0.534166
234 1 0.478375 0.291329 0.46878
134 1 0.544086 0.376376 0.352465
135 1 0.462535 0.378645 0.356849
235 1 0.561599 0.287853 0.461619
237 1 0.585979 0.362535 0.423274
252 1 0.432789 0.444759 0.391017
236 1 0.473649 0.327016 0.54389
251 1 0.45509 0.408294 0.534111
254 1 0.525751 0.450755 0.542747
359 1 0.539461 0.478641 0.62268
139 1 0.679901 0.25985 0.36157
238 1 0.709706 0.255047 0.437588
156 1 0.707468 0.398898 0.379152
158 1 0.702548 0.479581 0.386722
239 1 0.718927 0.352413 0.554214
240 1 0.759784 0.281254 0.573757
341 1 0.656122 0.378206 0.593102
363 1 0.777151 0.435746 0.642795
241 1 0.800194 0.263443 0.418154
243 1 0.926096 0.307959 0.375629
245 1 0.82574 0.372129 0.488764
261 1 0.847702 0.417617 0.416548
263 1 0.878762 0.488532 0.437596
259 1 0.943133 0.377573 0.546551
244 1 0.88989 0.323424 0.509686
367 1 0.952336 0.472957 0.663799
309 1 0.179003 0.0655408 0.741477
389 1 0.0302918 0.0654588 0.760008
308 1 0.0189308 0.143997 0.759655
409 1 0.095419 0.0329745 0.882877
410 1 0.0752344 0.164869 0.911322
430 1 0.162407 0.193408 0.817126
431 1 0.137674 0.211252 0.895437
408 1 0.0981425 0.0905492 0.945712
310 1 0.208989 0.00619909 0.688936
312 1 0.231337 0.128867 0.727345
7 1 0.389049 0.0750336 0.984062
412 1 0.355557 0.0808679 0.776288
413 1 0.290545 0.12865 0.791905
414 1 0.344036 0.0535248 0.917286
415 1 0.262447 0.0787132 0.937157
4 1 0.232804 0.0267068 0.996922
411 1 0.385993 0.161412 0.989239
313 1 0.448972 0.130729 0.688931
314 1 0.524856 0.0889675 0.701387
316 1 0.499356 0.00850439 0.698394
315 1 0.407003 0.141844 0.757907
416 1 0.517093 0.0545355 0.86556
417 1 0.518419 0.179547 0.956586
419 1 0.443721 0.195772 0.929115
421 1 0.578861 0.100585 0.837947
338 1 0.529009 0.240618 0.817358
317 1 0.451738 0.000618821 0.761759
319 1 0.725281 0.124219 0.746782
320 1 0.654678 0.0155552 0.721881
342 1 0.741407 0.205096 0.756548
422 1 0.650735 0.0680055 0.881539
423 1 0.617344 0.0363707 0.94792
321 1 0.78648 0.0854338 0.786018
424 1 0.68222 0.211316 0.917791
16 1 0.675921 0.167377 0.986652
324 1 0.853355 0.0956096 0.74109
403 1 0.98992 0.0282772 0.691046
325 1 0.886187 0.172408 0.757708
425 1 0.830874 0.0939939 0.928189
426 1 0.94474 0.157717 0.808431
427 1 0.833357 0.174927 0.895872
428 1 0.905239 0.0614751 0.918038
24 1 0.944967 0.0574654 0.993827
444 1 0.963492 0.221809 0.918505
447 1 0.876572 0.220347 0.943912
326 1 0.0674681 0.258651 0.738155
327 1 0.0375762 0.387465 0.73828
330 1 0.154343 0.394039 0.673757
329 1 0.119198 0.407198 0.752274
345 1 0.0177366 0.316189 0.774146
328 1 0.143581 0.264815 0.769974
432 1 0.0635184 0.367618 0.892741
446 1 0.00139053 0.277813 0.963347
449 1 0.0937363 0.415611 0.954381
469 1 0.00778205 0.495387 0.868434
354 1 0.302189 0.412683 0.698926
355 1 0.369998 0.452517 0.678384
334 1 0.333052 0.278691 0.754471
335 1 0.312715 0.36493 0.763681
435 1 0.203162 0.330899 0.90182
436 1 0.271211 0.283803 0.87576
437 1 0.343712 0.31208 0.909765
434 1 0.345269 0.301509 0.989331
454 1 0.364771 0.480449 0.989566
433 1 0.212997 0.401114 0.861248
455 1 0.226371 0.453015 0.93431
456 1 0.347273 0.471247 0.852409
337 1 0.41429 0.275756 0.752951
340 1 0.562494 0.251721 0.743551
357 1 0.504741 0.398099 0.715483
360 1 0.572373 0.425324 0.675077
339 1 0.458499 0.295694 0.821639
439 1 0.575443 0.297673 0.946734
459 1 0.404394 0.490001 0.919065
457 1 0.511132 0.41492 0.852386
361 1 0.489015 0.454716 0.78395
460 1 0.593495 0.449864 0.870097
344 1 0.792123 0.375402 0.694151
343 1 0.638525 0.291425 0.74802
440 1 0.687224 0.251627 0.798684
441 1 0.656274 0.295438 0.940653
465 1 0.665043 0.408456 0.847412
463 1 0.705076 0.449362 0.780083
464 1 0.761564 0.485908 0.819467
347 1 0.873048 0.359627 0.704271
42 1 0.803517 0.33823 0.992892
442 1 0.801449 0.330808 0.848855
443 1 0.989015 0.349671 0.920752
445 1 0.86966 0.30567 0.828896
348 1 0.899907 0.37533 0.78234
467 1 0.810572 0.379029 0.922006
50 1 0.129406 0.573162 0.0287161
48 1 0.0459418 0.551107 0.00444743
51 1 0.120684 0.596402 0.111182
165 1 0.185056 0.531505 0.248434
66 1 0.0667181 0.657721 0.119872
67 1 0.109866 0.729617 0.0998036
69 1 0.163251 0.749892 0.220125
177 1 0.00937251 0.632325 0.291448
269 1 0.187526 0.589547 0.308813
166 1 0.239744 0.555154 0.18678
148 1 0.373509 0.545827 0.203858
70 1 0.3965 0.652608 0.124758
71 1 0.306422 0.673815 0.110909
475 1 0.274816 0.623207 0.0534834
168 1 0.360458 0.703011 0.239834
169 1 0.304295 0.686338 0.297692
53 1 0.404865 0.575128 0.127784
56 1 0.517433 0.580297 0.0622548
152 1 0.530472 0.544358 0.227503
58 1 0.599342 0.561395 0.0709001
151 1 0.520395 0.614138 0.188274
74 1 0.528495 0.68014 0.238336
171 1 0.420693 0.747692 0.274663
172 1 0.472896 0.68899 0.297277
153 1 0.610178 0.523281 0.231283
60 1 0.730758 0.523574 0.146137
61 1 0.777725 0.524918 0.0752438
461 1 0.728022 0.520531 0.000265997
62 1 0.74054 0.603806 0.165626
77 1 0.606557 0.718118 0.115244
78 1 0.628381 0.745771 0.0387081
80 1 0.755298 0.690228 0.0430903
155 1 0.638143 0.555609 0.303618
161 1 0.776449 0.603109 0.290396
175 1 0.698542 0.706011 0.297496
63 1 0.98273 0.512716 0.11095
64 1 0.900248 0.527755 0.0850346
159 1 0.806949 0.613742 0.211221
65 1 0.891192 0.609837 0.074995
81 1 0.942512 0.741264 0.183086
82 1 0.876911 0.723015 0.135458
83 1 0.923506 0.734567 0.26358
178 1 0.926065 0.654046 0.286637
488 1 0.926785 0.625446 0.000818401
68 1 0.107528 0.780646 0.169672
84 1 0.0686828 0.94176 0.111748
88 1 0.17872 0.952215 0.185349
87 1 0.178451 0.886948 0.014602
85 1 0.177208 0.802557 0.00561486
86 1 0.000549978 0.889419 0.125221
106 1 0.150805 0.979887 0.256836
183 1 0.015007 0.928455 0.282799
181 1 0.0525157 0.795993 0.309135
182 1 0.0708644 0.862744 0.266578
89 1 0.2413 0.774816 0.197546
72 1 0.384073 0.837692 0.159468
496 1 0.339735 0.797622 0.026996
90 1 0.255096 0.897813 0.0572004
92 1 0.396271 0.792685 0.0953188
185 1 0.255733 0.91263 0.195699
495 1 0.3244 0.880217 0.0185146
186 1 0.257263 0.844329 0.241657
91 1 0.367263 0.947277 0.14371
190 1 0.391368 0.954148 0.226726
10 1 0.466334 0.988569 0.058648
76 1 0.54623 0.833997 0.13128
93 1 0.581114 0.874031 0.0533831
191 1 0.458232 0.90417 0.231759
95 1 0.521489 0.946049 0.193173
75 1 0.603988 0.791628 0.162085
79 1 0.708867 0.761705 0.0346785
174 1 0.717841 0.754027 0.233699
94 1 0.608837 0.945867 0.066358
97 1 0.744483 0.940114 0.0359209
98 1 0.684106 0.934131 0.0973001
194 1 0.739621 0.84117 0.242792
200 1 0.818139 0.833032 0.263161
99 1 0.918691 0.992626 0.0336997
509 1 0.887569 0.828392 0.0529489
201 1 0.836691 0.986599 0.232728
203 1 0.940088 0.898793 0.246698
100 1 0.845136 0.797643 0.119828
101 1 0.939438 0.921848 0.170892
145 1 0.0207185 0.522349 0.39354
164 1 0.0329221 0.653373 0.365372
264 1 0.00685624 0.74822 0.466367
170 1 0.179022 0.717841 0.404767
351 1 0.0298346 0.516253 0.6596
265 1 0.0024151 0.729078 0.550762
266 1 0.00597545 0.648164 0.559906
267 1 0.0815899 0.623487 0.542516
369 1 0.145811 0.660433 0.59584
149 1 0.22855 0.558169 0.374395
150 1 0.312646 0.566521 0.349063
249 1 0.3408 0.522298 0.494914
270 1 0.376181 0.593589 0.482883
271 1 0.293256 0.698915 0.476242
268 1 0.212633 0.711495 0.481435
167 1 0.335689 0.644351 0.360308
353 1 0.316456 0.525791 0.575182
372 1 0.259484 0.587078 0.576012
374 1 0.297784 0.654161 0.604334
250 1 0.430535 0.505188 0.335809
253 1 0.494123 0.551324 0.354913
275 1 0.498635 0.534892 0.439552
255 1 0.461856 0.5963 0.486405
173 1 0.572912 0.698954 0.394846
274 1 0.50821 0.724862 0.445557
276 1 0.494884 0.699521 0.589932
277 1 0.413392 0.722121 0.595412
379 1 0.514236 0.639387 0.639771
157 1 0.621571 0.50374 0.37134
279 1 0.6823 0.689991 0.467702
278 1 0.617552 0.647669 0.448889
176 1 0.773212 0.672895 0.333423
256 1 0.657592 0.56666 0.538948
257 1 0.716047 0.506765 0.533327
260 1 0.792819 0.538368 0.525872
258 1 0.659334 0.602356 0.613311
282 1 0.792558 0.722857 0.528562
280 1 0.661867 0.728599 0.542535
281 1 0.696351 0.679797 0.600009
147 1 0.988745 0.593353 0.409146
262 1 0.820048 0.551295 0.450834
180 1 0.878597 0.69583 0.429499
365 1 0.906297 0.512554 0.60507
368 1 0.865131 0.584087 0.641449
284 1 0.855042 0.68077 0.512333
187 1 0.166181 0.795616 0.376572
184 1 0.084679 0.820854 0.38526
287 1 0.123884 0.865978 0.498437
286 1 0.058618 0.886623 0.538284
289 1 0.196388 0.885349 0.538621
393 1 0.164124 0.80919 0.648493
288 1 0.0181866 0.958799 0.503003
273 1 0.340046 0.772929 0.478194
272 1 0.339179 0.78687 0.393793
188 1 0.298016 0.859623 0.378362
290 1 0.398278 0.939568 0.415327
189 1 0.356864 0.908659 0.349824
210 1 0.25183 0.997466 0.474193
291 1 0.249253 0.919224 0.480749
377 1 0.242779 0.799214 0.662561
292 1 0.366421 0.88189 0.576513
394 1 0.309239 0.924528 0.627246
118 1 0.548997 0.988951 0.364955
293 1 0.522849 0.808138 0.451346
192 1 0.516917 0.845944 0.380029
378 1 0.414556 0.782633 0.65353
396 1 0.429188 0.854462 0.619136
294 1 0.527304 0.940794 0.506846
295 1 0.495586 0.972111 0.580549
297 1 0.741837 0.999051 0.398574
197 1 0.791415 0.860062 0.385732
198 1 0.719579 0.852817 0.418917
196 1 0.657368 0.884058 0.367833
195 1 0.600415 0.83079 0.338879
298 1 0.647114 0.869291 0.529123
395 1 0.624031 0.823648 0.644118
299 1 0.73729 0.985133 0.54998
400 1 0.676495 0.870697 0.602331
404 1 0.789307 0.939969 0.599184
296 1 0.613117 0.94534 0.507332
179 1 0.931511 0.763966 0.443696
300 1 0.983398 0.937319 0.431269
301 1 0.901103 0.907946 0.452955
199 1 0.811907 0.797512 0.340739
202 1 0.86486 0.985539 0.35718
285 1 0.82081 0.804924 0.618623
385 1 0.897386 0.785254 0.634111
283 1 0.817476 0.806266 0.535064
302 1 0.896071 0.891474 0.533008
303 1 0.872911 0.95511 0.578364
405 1 0.944417 0.861416 0.6462
370 1 0.115865 0.655374 0.677393
371 1 0.0601782 0.715856 0.702848
352 1 0.159933 0.537139 0.799491
448 1 0.0874258 0.589177 0.795631
450 1 0.0546658 0.571345 0.869341
451 1 0.179721 0.522096 0.934264
472 1 0.0730714 0.674058 0.949409
473 1 0.143664 0.69369 0.902111
486 1 0.0028412 0.69149 0.906968
356 1 0.354577 0.533473 0.68052
373 1 0.303238 0.642853 0.695349
375 1 0.232659 0.673804 0.726273
452 1 0.20378 0.559856 0.861996
453 1 0.341514 0.546838 0.822213
358 1 0.386798 0.559409 0.758073
476 1 0.267565 0.673894 0.985688
477 1 0.323618 0.644503 0.933958
480 1 0.379843 0.703686 0.930281
381 1 0.562363 0.680256 0.697682
57 1 0.495132 0.590713 0.982276
481 1 0.595408 0.613396 0.835654
73 1 0.438838 0.707676 0.993445
380 1 0.513824 0.682509 0.768063
479 1 0.505542 0.669048 0.963522
382 1 0.517223 0.602754 0.80537
362 1 0.764755 0.511008 0.677171
383 1 0.772755 0.699493 0.731811
458 1 0.635053 0.578672 0.773386
462 1 0.687284 0.59026 0.991552
364 1 0.711314 0.61189 0.794431
466 1 0.741712 0.563839 0.856225
483 1 0.74862 0.648321 0.974979
484 1 0.685201 0.733544 0.867511
366 1 0.833566 0.555862 0.705459
386 1 0.983139 0.687988 0.685668
468 1 0.925325 0.507883 0.854523
470 1 0.881554 0.527276 0.922218
471 1 0.867091 0.613167 0.941664
388 1 0.819053 0.672975 0.800659
387 1 0.955034 0.654074 0.761473
489 1 0.893932 0.703455 0.794663
390 1 0.155138 0.89199 0.676158
474 1 0.15623 0.774589 0.886332
493 1 0.025278 0.940677 0.944753
391 1 0.113178 0.886522 0.751555
490 1 0.0220824 0.993997 0.876058
491 1 0.0527958 0.869022 0.921754
492 1 0.154685 0.878912 0.819632
497 1 0.184466 0.951455 0.847712
376 1 0.248093 0.75895 0.742009
392 1 0.352179 0.973042 0.674523
478 1 0.220022 0.792601 0.938518
498 1 0.252764 0.965557 0.805121
499 1 0.328872 0.855413 0.823777
500 1 0.315083 0.932344 0.859377
397 1 0.587369 0.875897 0.698668
418 1 0.468078 0.965416 0.977131
398 1 0.404285 0.860017 0.780772
420 1 0.499875 0.986434 0.824629
501 1 0.462246 0.809521 0.808904
502 1 0.44202 0.878895 0.966295
503 1 0.507509 0.837617 0.941066
504 1 0.522057 0.85499 0.851895
505 1 0.595935 0.961346 0.926324
402 1 0.697534 0.940567 0.743109
399 1 0.737813 0.773508 0.738501
384 1 0.664559 0.75376 0.787828
482 1 0.641662 0.792966 0.916087
506 1 0.689905 0.860141 0.940244
401 1 0.634848 0.888329 0.7652
507 1 0.662989 0.927276 0.893127
494 1 0.999718 0.821244 0.880292
487 1 0.964241 0.763941 0.927637
508 1 0.833495 0.929133 0.768755
511 1 0.811159 0.914503 0.899991
407 1 0.948318 0.859527 0.732014
406 1 0.867912 0.853673 0.753931
512 1 0.867884 0.94249 0.844983
510 1 0.837328 0.828176 0.918917
485 1 0.828973 0.807631 0.993555
ITEM: TIMESTEP
250
ITEM: NUMBER OF ATOMS
512
ITEM: BOX BOUNDS pp pp pp
2.5208830869999999e-01 2.5085452691299999e+01
2.5208830869999999e-01 2.5085452691299999e+01
2.5208830869999999e-01 2.5085452691299999e+01
ITEM: ATOMS id type xs ys zs
1 1 0.101855 0.056089 0.135383
42 1 0.796271 0.344225 0.00665079
25 1 0.0620069 0.200166 0.0834852
102 1 0.0903004 0.173342 0.301289
103 1 0.184111 0.0905513 0.244098
105 1 0.155834 0.128903 0.318649
2 1 0.208314 0.119813 0.0595642
5 1 0.276587 0.0729441 0.0603979
6 1 0.384426 0.113993 0.210263
107 1 0.311256 0.116554 0.173143
31 1 0.223355 0.191357 0.0161874
12 1 0.416911 0.0292076 0.0951024
127 1 0.277727 0.187622 0.181512
108 1 0.231278 0.0425534 0.284469
8 1 0.501722 0.152429 0.0764611
112 1 0.415919 0.189329 0.186909
11 1 0.424051 0.19543 0.105
115 1 0.527875 0.0240198 0.23756
113 1 0.520951 0.178225 0.295377
116 1 0.57823 0.0273419 0.305546
133 1 0.48429 0.241416 0.331179
144 1 1.00067 0.481111 0.287281
9 1 0.571144 0.185732 0.116297
13 1 0.57451 0.136113 0.183385
14 1 0.64597 0.0932198 0.160528
15 1 0.74814 0.130793 0.0346789
119 1 0.700456 0.108543 0.220671
96 1 0.757407 0.00198743 0.025821
193 1 0.717879 0.033601 0.2569
19 1 0.815535 0.180869 0.0711049
17 1 0.783022 0.20646 0.140017
201 1 0.796259 0.0131262 0.228145
137 1 0.65552 0.200901 0.317824
18 1 0.036751 0.04987 0.185152
20 1 0.961485 0.0768161 0.15674
21 1 0.960584 0.160684 0.154491
23 1 0.830791 0.0137017 0.0729959
22 1 0.984825 0.1823 0.0715033
123 1 0.853454 0.0554736 0.279341
60 1 0.761675 0.484215 0.110699
124 1 0.814858 0.226682 0.264474
27 1 0.0513145 0.287001 0.100447
28 1 0.117486 0.289693 0.212655
29 1 0.0427335 0.28269 0.18462
30 1 0.123615 0.37376 0.23486
429 1 0.0888894 0.38585 0.033339
26 1 0.165147 0.384757 0.0646465
46 1 0.103649 0.420036 0.171387
49 1 0.163846 0.445263 0.121855
160 1 0.942441 0.421837 0.296237
163 1 0.870788 0.461233 0.265538
32 1 0.229676 0.241468 0.0817485
33 1 0.301779 0.241537 0.117498
35 1 0.319009 0.376002 0.03054
34 1 0.370244 0.34535 0.16365
146 1 0.302161 0.490686 0.213527
52 1 0.359467 0.458006 0.0446798
129 1 0.383866 0.315661 0.236209
125 1 0.229641 0.268119 0.318837
130 1 0.257814 0.338618 0.283174
131 1 0.334758 0.353353 0.295679
36 1 0.510118 0.36932 0.079888
37 1 0.500406 0.40264 0.157668
55 1 0.423382 0.418826 0.156775
38 1 0.534705 0.423018 0.0211869
54 1 0.619142 0.436019 0.0453603
138 1 0.637526 0.378125 0.242451
39 1 0.62285 0.310521 0.131279
40 1 0.762075 0.286888 0.145559
41 1 0.70681 0.323522 0.0978785
136 1 0.635892 0.301365 0.206958
59 1 0.606084 0.491476 0.106772
154 1 0.710564 0.41516 0.239089
140 1 0.757771 0.398725 0.308079
43 1 0.940912 0.353686 0.131633
44 1 0.877153 0.319664 0.0166513
45 1 0.922509 0.379118 0.0479681
142 1 0.889557 0.211885 0.275176
141 1 0.866242 0.36929 0.167467
162 1 0.865137 0.458238 0.186256
143 1 0.930588 0.277165 0.311661
16 1 0.687431 0.177564 0.0109412
165 1 0.167674 0.496103 0.266143
104 1 0.0285543 0.11253 0.309451
121 1 0.78575 0.179258 0.328926
118 1 0.537088 0.0059767 0.371265
204 1 0.111933 0.0528965 0.467029
205 1 0.109563 0.138315 0.460872
206 1 0.184576 0.0280202 0.427644
306 1 0.0384464 0.0520465 0.618578
307 1 0.178638 0.0582761 0.615472
207 1 0.158441 0.173329 0.517476
304 1 0.107925 0.184005 0.583999
242 1 0.98527 0.22145 0.531567
226 1 0.0585818 0.251341 0.55942
367 1 0.954407 0.480233 0.640165
211 1 0.397599 0.180998 0.511292
109 1 0.324638 0.149335 0.351519
208 1 0.292193 0.138742 0.428177
209 1 0.34005 0.12703 0.496199
210 1 0.245086 0.0185008 0.485572
128 1 0.352753 0.227602 0.339886
311 1 0.339925 0.0153809 0.614035
305 1 0.107412 0.0165815 0.596324
332 1 0.252362 0.219802 0.611242
231 1 0.370519 0.251034 0.541776
331 1 0.334413 0.228554 0.620915
110 1 0.414848 0.0530438 0.362259
213 1 0.541768 0.117158 0.494196
114 1 0.484813 0.0697649 0.398562
216 1 0.603822 0.0649458 0.508897
132 1 0.417992 0.230615 0.38822
214 1 0.52979 0.161528 0.567525
215 1 0.467451 0.0284911 0.563303
336 1 0.585197 0.223605 0.572075
120 1 0.682628 0.0661607 0.395622
217 1 0.664227 0.104668 0.46817
218 1 0.708363 0.056811 0.598448
244 1 0.894722 0.33476 0.514407
318 1 0.627209 0.186011 0.626748
219 1 0.698358 0.178858 0.593487
122 1 0.96067 0.136132 0.339712
220 1 0.962425 0.145954 0.439093
224 1 0.814197 0.0218135 0.406576
223 1 0.817026 0.193724 0.399774
323 1 0.831258 0.1593 0.587345
346 1 0.94427 0.223821 0.612299
221 1 0.909906 0.0932893 0.475391
222 1 0.83562 0.13262 0.508366
246 1 0.867401 0.236619 0.592263
126 1 0.0426908 0.349654 0.386023
225 1 0.0309193 0.264033 0.394045
227 1 0.0639673 0.372123 0.462622
229 1 0.196218 0.293382 0.393016
247 1 0.999738 0.411732 0.499731
349 1 0.0859181 0.485956 0.604169
322 1 0.642245 0.0282101 0.642255
230 1 0.255121 0.280241 0.4452
232 1 0.297089 0.364274 0.456723
228 1 0.183847 0.330222 0.585346
248 1 0.236044 0.396319 0.571886
333 1 0.222862 0.287227 0.645508
233 1 0.313861 0.373186 0.534696
234 1 0.483686 0.313294 0.503167
134 1 0.586079 0.410687 0.388066
135 1 0.511927 0.391791 0.350277
235 1 0.565452 0.314234 0.474212
237 1 0.582609 0.394735 0.468765
252 1 0.449674 0.43826 0.376683
236 1 0.48148 0.349313 0.576229
251 1 0.461988 0.426825 0.556875
254 1 0.533047 0.468439 0.56589
202 1 0.875799 0.00575812 0.343798
139 1 0.652381 0.266771 0.374389
238 1 0.692098 0.238417 0.441046
156 1 0.701225 0.410544 0.37064
158 1 0.707933 0.491969 0.382057
239 1 0.683629 0.324179 0.577366
240 1 0.745016 0.268759 0.601017
341 1 0.623429 0.360337 0.620108
363 1 0.78593 0.432124 0.635731
241 1 0.768239 0.257172 0.434092
243 1 0.950825 0.263644 0.393738
245 1 0.837366 0.395333 0.507688
261 1 0.835868 0.426096 0.42588
117 1 0.592383 0.153056 0.342708
259 1 0.958178 0.370975 0.556624
297 1 0.733102 0.0014295 0.402532
309 1 0.190499 0.0785241 0.741247
389 1 0.0341755 0.0256829 0.753456
308 1 0.0244579 0.109008 0.760249
409 1 0.123654 0.0266103 0.905864
410 1 0.0866678 0.147321 0.935909
430 1 0.156135 0.178818 0.821264
431 1 0.151027 0.191885 0.906192
408 1 0.125982 0.0818677 0.965967
310 1 0.210673 0.0253413 0.686781
312 1 0.249903 0.135555 0.726091
7 1 0.395334 0.116388 0.973689
412 1 0.365351 0.100227 0.782008
413 1 0.292031 0.141016 0.788974
414 1 0.37427 0.075695 0.906412
415 1 0.286197 0.0685448 0.926127
4 1 0.27421 0.0188811 0.987532
411 1 0.41862 0.195692 0.947757
313 1 0.468069 0.110762 0.678753
314 1 0.532168 0.0717459 0.710611
445 1 0.873033 0.349118 0.836522
315 1 0.421725 0.148748 0.745163
416 1 0.529645 0.0540118 0.874912
417 1 0.553723 0.201858 0.958682
419 1 0.492283 0.194648 0.90713
421 1 0.594657 0.0984244 0.853654
338 1 0.522783 0.227406 0.790413
467 1 0.80784 0.401423 0.94439
319 1 0.724524 0.131509 0.725802
320 1 0.662071 0.00439919 0.724426
342 1 0.743589 0.209661 0.725478
422 1 0.6673 0.0620098 0.866095
423 1 0.661988 0.0243247 0.94082
321 1 0.773764 0.102031 0.78528
424 1 0.701192 0.217804 0.93979
443 1 0.99949 0.359345 0.900196
324 1 0.831995 0.0597274 0.746388
403 1 0.0117838 0.00292708 0.675736
325 1 0.888029 0.119141 0.725817
425 1 0.838029 0.0913745 0.914458
426 1 0.949378 0.124525 0.783771
427 1 0.845312 0.165077 0.874613
428 1 0.908613 0.0485186 0.913701
24 1 0.928112 0.0561757 0.99207
444 1 0.962144 0.222762 0.908492
447 1 0.876517 0.216841 0.931816
326 1 0.0864419 0.249675 0.722875
327 1 0.0251279 0.382392 0.722673
330 1 0.148964 0.434346 0.705131
329 1 0.0858403 0.421919 0.760129
345 1 0.0295245 0.304812 0.755797
328 1 0.156633 0.242713 0.770161
432 1 0.0761037 0.370339 0.905569
446 1 0.989936 0.287729 0.951555
449 1 0.0837979 0.429604 0.960511
469 1 -0.000732025 0.499672 0.832541
354 1 0.331556 0.392804 0.677902
348 1 0.867442 0.404661 0.775899
334 1 0.376117 0.277132 0.73852
335 1 0.342204 0.360532 0.751214
435 1 0.211281 0.327519 0.881536
436 1 0.294252 0.285514 0.884926
437 1 0.360205 0.328612 0.906094
434 1 0.366008 0.32742 0.992219
355 1 0.39917 0.442933 0.671242
433 1 0.224701 0.400259 0.847748
455 1 0.25084 0.454334 0.910125
456 1 0.38471 0.472375 0.856885
337 1 0.445982 0.299182 0.703964
340 1 0.590736 0.219256 0.74484
357 1 0.557152 0.422457 0.729529
360 1 0.576558 0.492698 0.692364
339 1 0.498709 0.302898 0.766984
439 1 0.610695 0.32102 0.928334
459 1 0.416991 0.497783 0.927747
457 1 0.516773 0.432225 0.853451
361 1 0.493006 0.450209 0.778764
460 1 0.580007 0.479097 0.876935
344 1 0.765539 0.373761 0.686317
343 1 0.636648 0.283304 0.762407
440 1 0.709788 0.24776 0.791842
441 1 0.686615 0.299939 0.956495
465 1 0.645157 0.421617 0.871503
463 1 0.687502 0.416177 0.804466
464 1 0.76067 0.472373 0.805857
347 1 0.838694 0.350096 0.711041
442 1 0.804064 0.343558 0.88355
438 1 0.556448 0.280941 0.985365
50 1 0.136252 0.60142 0.0720372
48 1 0.0705123 0.565249 0.0372626
51 1 0.0847138 0.634831 0.141492
485 1 0.802715 0.818281 0.00304253
66 1 0.0360529 0.691166 0.122063
67 1 0.0746029 0.76538 0.126326
69 1 0.152296 0.726217 0.217979
177 1 0.991956 0.64415 0.284219
269 1 0.171082 0.551483 0.325922
166 1 0.223958 0.525086 0.206285
148 1 0.363987 0.547168 0.216637
70 1 0.375368 0.628246 0.103588
71 1 0.293828 0.630574 0.102589
475 1 0.264413 0.591002 0.037092
168 1 0.347064 0.687974 0.225417
169 1 0.294912 0.695114 0.291443
53 1 0.394894 0.553686 0.146309
56 1 0.510612 0.580521 0.0580323
152 1 0.53658 0.557184 0.24461
58 1 0.590328 0.565178 0.0650754
151 1 0.515455 0.62809 0.208937
74 1 0.518259 0.698146 0.258106
171 1 0.396426 0.751977 0.242223
172 1 0.444995 0.711967 0.298043
153 1 0.625595 0.54343 0.245071
195 1 0.582007 0.859884 0.29688
101 1 0.934446 0.966613 0.187405
176 1 0.784141 0.643994 0.30297
62 1 0.735157 0.548239 0.157947
77 1 0.614617 0.712256 0.141106
78 1 0.6489 0.713955 0.0654654
80 1 0.775076 0.655151 0.05987
155 1 0.646918 0.579867 0.31667
161 1 0.798149 0.568809 0.270847
175 1 0.71263 0.679615 0.263463
63 1 0.993928 0.52454 0.138411
64 1 0.912019 0.527294 0.0926708
159 1 0.806404 0.584044 0.190468
65 1 0.893525 0.603974 0.0673752
81 1 0.960672 0.786625 0.190849
82 1 0.897007 0.768048 0.132758
83 1 0.930346 0.762588 0.26197
178 1 0.917051 0.676786 0.27133
488 1 0.945123 0.609326 0.000414626
68 1 0.0914099 0.779768 0.208535
84 1 0.061126 0.927908 0.132092
88 1 0.180147 0.921694 0.243699
87 1 0.168705 0.903807 0.0371014
85 1 0.151366 0.821637 0.0405091
86 1 0.972694 0.922115 0.126618
106 1 0.185352 0.974352 0.303689
183 1 0.972039 0.923722 0.307874
181 1 0.0586921 0.826148 0.323636
182 1 0.0463093 0.897458 0.284801
89 1 0.215126 0.765515 0.185484
72 1 0.383887 0.811824 0.152644
496 1 0.332193 0.78939 0.0231681
90 1 0.242738 0.896996 0.0764988
92 1 0.394446 0.770691 0.0863003
185 1 0.258668 0.88341 0.227716
495 1 0.309705 0.870726 0.0310625
186 1 0.251141 0.808046 0.253885
91 1 0.362718 0.982217 0.141124
190 1 0.374637 0.986103 0.22371
10 1 0.476817 0.976357 0.0719881
76 1 0.541558 0.826735 0.113469
93 1 0.584028 0.880526 0.0661412
191 1 0.429562 0.926994 0.244585
95 1 0.509179 0.949645 0.207682
75 1 0.588711 0.791976 0.16228
79 1 0.729282 0.727274 0.0688958
174 1 0.73808 0.739837 0.208865
94 1 0.623147 0.93147 0.119057
97 1 0.73074 0.924222 0.0414248
98 1 0.699427 0.900961 0.118025
194 1 0.706419 0.813925 0.228187
200 1 0.770973 0.864137 0.260841
99 1 0.896372 0.989616 0.0260436
509 1 0.849641 0.875554 0.0667595
100 1 0.841518 0.831208 0.131309
203 1 0.91337 0.910931 0.250667
3 1 0.0826806 0.984889 0.0809424
47 1 0.0504126 0.503708 0.0843214
61 1 0.79631 0.50805 0.0300535
199 1 0.800189 0.826504 0.326419
145 1 0.0294569 0.507274 0.357239
164 1 0.00706017 0.640425 0.368166
264 1 0.993621 0.776199 0.429153
170 1 0.188666 0.734959 0.413793
351 1 0.0212875 0.519209 0.649644
265 1 0.998275 0.758442 0.510451
266 1 0.983424 0.673593 0.527085
267 1 0.0523754 0.631406 0.526879
369 1 0.112564 0.663482 0.583246
149 1 0.232162 0.538671 0.375359
263 1 0.864678 0.502303 0.445038
249 1 0.309865 0.525613 0.491513
270 1 0.362728 0.586444 0.47416
271 1 0.286269 0.728538 0.502246
268 1 0.212028 0.764762 0.487613
167 1 0.325502 0.647791 0.355091
353 1 0.291873 0.533776 0.56884
372 1 0.244559 0.599593 0.572821
374 1 0.306043 0.655365 0.606792
359 1 0.528144 0.517637 0.630775
253 1 0.48889 0.559888 0.363036
275 1 0.500593 0.539386 0.44057
255 1 0.442998 0.578941 0.497807
173 1 0.590164 0.691374 0.379778
274 1 0.520287 0.731924 0.407544
276 1 0.502224 0.69192 0.574397
277 1 0.422647 0.707129 0.598263
379 1 0.527332 0.633186 0.624636
157 1 0.631064 0.525215 0.371499
279 1 0.651267 0.716107 0.488301
278 1 0.613611 0.650935 0.448278
385 1 0.906585 0.786338 0.62428
256 1 0.65554 0.525048 0.523977
257 1 0.740315 0.501827 0.526759
260 1 0.77519 0.575511 0.500616
258 1 0.650002 0.569479 0.595306
282 1 0.781417 0.753901 0.50707
280 1 0.624576 0.707929 0.574003
281 1 0.676873 0.644731 0.592815
147 1 0.973154 0.564718 0.390845
262 1 0.813017 0.563351 0.422726
180 1 0.877143 0.713608 0.417264
365 1 0.908485 0.525566 0.584936
368 1 0.867889 0.581984 0.629864
284 1 0.84769 0.711896 0.4947
187 1 0.186292 0.805995 0.368001
184 1 0.105887 0.841456 0.390214