# LAMMPS data file written by OVITO Basic 3.4.3
3456 atoms
1 atom types
0.9283567326 47.858216337 xlo xhi
0.9283567326 47.858216337 ylo yhi
0.9283567326 47.858216337 zlo zhi

Atoms  # atomic

24 1 4.8101178329 4.9499500426 2.4624375272
423 1 47.0059700866 5.0006765278 4.196378515
2339 1 2.8256183247 1.8945486821 0.9560490103
51 1 5.5691285312 5.4847251787 0.7035627051
94 1 5.7906186966 2.5310583679 3.9796094935
23 1 6.1692957338 4.604860706 3.941000298
1 1 7.0766845692 1.6056813173 2.6099615409
578 1 9.8944941295 5.18915623 3.4235563589
596 1 11.9148245854 4.8631063374 3.5834792415
527 1 12.0849453265 2.8519647479 3.3256231279
514 1 14.6693726949 2.1972838205 1.3052171149
601 1 15.0646159725 0.9842337699 2.8483793067
634 1 15.4841689174 2.3721397844 4.3925077842
534 1 16.8754515352 3.6227876919 3.7161358757
629 1 18.9212179751 2.8718489294 3.7418815966
551 1 19.5681460897 3.9460264859 5.453878182
129 1 20.6956359667 50.5679558165 1.0840657831
215 1 23.005992955 49.7676046049 3.4913230762
216 1 22.7643980378 50.7415259023 1.7447063334
2636 1 -19.5186076582 6.2476216695 51.7237443989
248 1 23.3437940845 47.6408372273 3.3103803095
729 1 26.4176998886 2.8976791242 3.2017611495
662 1 29.6707838966 3.3500454269 4.2634318984
762 1 28.1418090707 2.0914147502 3.9502126294
757 1 31.113360851 2.8882696873 2.6595288586
679 1 31.3177873194 4.4639960394 1.3147405913
642 1 26.9153441198 3.0684052604 1.1696015531
709 1 32.5248702383 5.8544433057 2.2696637429
280 1 36.6063131982 4.3707698733 3.8221128846
279 1 35.1867788049 3.1728617419 4.5165527891
2683 1 -13.1430923712 5.7202239072 52.7567550825
307 1 38.4998391736 3.6917933575 3.8445594365
292 1 38.77846175 2.4493910263 2.0642752124
1126 1 42.7026896803 2.1596413801 5.0599395545
397 1 41.9195241832 5.832620921 2.6644846518
1114 1 44.0825683422 2.1621662065 6.4568819134
501 1 45.3425881428 3.8926531566 3.7481655048
406 1 45.8080384903 2.7963857152 2.0918981277
453 1 46.4475047573 6.8185703414 3.4312903998
506 1 45.7747652199 4.237165256 0.6034613146
473 1 43.9625686912 4.9266728322 0.1581908066
483 1 49.4574873996 8.0923405908 2.3497870922
487 1 49.3490324941 9.929081436 3.017415968
455 1 47.6242709869 7.2673605888 1.6523202118
2427 1 3.1079014303 5.8679591053 5.9482091652
607 1 6.9433099082 8.0336313364 3.6572623668
605 1 5.8569305883 9.7012838975 3.2865117829
113 1 11.3790263783 10.6741398871 2.4778305212
608 1 9.014512332 8.5485926859 3.2783412944
2513 1 15.8491893654 6.3413405991 5.4668965251
115 1 12.8197730682 10.2536014152 3.9294837104
85 1 13.9726050694 7.2991321038 2.2309231438
9 1 14.4557949038 9.516239461 2.9178214199
611 1 17.1454859474 7.820522844 4.3994815614
3 1 14.1750604837 7.1084091543 0.3281238283
581 1 20.2127277114 5.9132933496 4.8503977314
647 1 22.1837348849 -37.9878539055 -91.2020065357
583 1 19.1032589005 7.5585134378 5.4012932743
736 1 21.5959853232 -35.988407237 -91.1402515335
615 1 19.6483022899 -39.7957798169 -92.2801684373
595 1 18.3497061448 -38.2531484018 -92.9734883138
2674 1 -21.6746123382 6.4986964183 51.80190608
2676 1 -22.1461635676 8.2500249191 50.9119892313
2627 1 -22.0192652272 9.8179515284 52.2478993078
735 1 23.2812835115 -34.9760363056 -91.5690402747
2625 1 -24.0083873265 10.3666554469 52.9803758635
655 1 26.3784195961 6.2067457617 0.5202546735
236 1 27.4428357418 10.8076084078 2.940845209
131 1 28.5851085245 9.8869384221 4.3329303275
711 1 31.2035131113 6.9853590624 3.3394345856
213 1 29.3961503582 11.3873798933 5.5476628135
739 1 30.4815441511 8.365378514 1.9181778664
760 1 35.9757166747 10.6794898911 4.2228751137
450 1 37.9563913993 7.7745785114 2.6297096258
667 1 35.9460100736 8.9666908051 5.3028766658
392 1 36.3295678162 6.9561217599 1.8325308727
391 1 34.6658104335 8.2275455163 1.555316192
727 1 38.0325116316 11.2186201182 4.0583953418
468 1 39.4999144817 7.4690181955 1.2583140053
371 1 41.9386246361 10.202166289 3.8466806661
2332 1 -7.6015676192 7.3086119354 5.9354911732
399 1 40.1534127767 5.590946223 1.5843000733
386 1 43.3316905886 6.6864158568 1.556968123
265 1 43.8488576414 9.7424413843 3.3027776723
341 1 44.8525465488 10.9907756498 1.9243069061
2330 1 -2.7345657394 7.8445509321 6.5037648432
2385 1 -0.9134994673 8.5570400606 6.4911876408
439 1 51.7757192184 12.3286051576 4.1165977536
411 1 52.7748700083 13.6027977757 2.847581499
390 1 50.8483007188 13.4364783532 5.4122748615
2749 1 47.3045378534 14.7616837288 3.0958216844
2731 1 48.300932922 16.8032734111 6.1547944072
2472 1 9.1010509931 11.263485064 52.5298163604
504 1 54.5481616833 14.1396284397 3.7451338359
47 1 10.4096901282 12.5930549164 2.7711421437
471 1 54.3756005896 16.0450276695 4.2804862094
472 1 54.9279650371 17.1086929374 2.5671145791
2491 1 9.1621536703 13.2890716642 53.0468285447
21 1 11.5440786946 13.8766804363 1.5935968785
25 1 12.4737122835 15.171428333 2.9852080053
2821 1 15.9006714213 13.6450346493 2.6735608866
2820 1 15.5612277468 15.3701293585 5.3759652291
2849 1 14.9199781452 12.6837234052 1.1946578744
2864 1 14.8713118808 12.1506940598 5.6132660642
2859 1 17.5170765757 15.6798664319 5.8244551254
2862 1 16.986816092 11.5159207788 5.9051275541
2877 1 17.4161773776 11.1062700343 3.9699701003
2880 1 17.8547369156 12.9294012202 2.8888516176
632 1 20.0876596355 -31.4617876289 -91.0151177558
599 1 21.4689931231 -32.4031536827 -92.387248298
567 1 21.6844950384 -32.5942990009 -88.1571878586
539 1 20.9705041544 -30.8999433497 -89.2339183995
175 1 25.8542599941 13.6675609819 3.6186203204
149 1 25.3528613741 15.5100741999 2.8294431083
600 1 22.7995015728 -30.8253248729 -92.8097878591
241 1 25.3071986207 13.5212806095 5.5170973959
3022 1 32.4723087956 12.5326561871 51.1374355839
2948 1 31.7961433784 14.7191652759 51.8322556202
2987 1 32.5165636532 15.9138587119 50.4907233466
159 1 29.3137415247 13.9160545885 2.0505059916
157 1 30.1821316469 11.9843746374 1.8341171019
2992 1 34.0566139259 12.9457797412 50.0485126655
2990 1 34.0402354049 12.7538366154 47.9531071052
641 1 36.9566915301 14.3681299261 3.4591902013
734 1 38.2444468776 14.9191803376 1.9547362271
3005 1 34.6055994236 14.5633112122 47.2727194086
3008 1 33.4653915546 16.0958527074 46.3939577875
728 1 37.8935992472 13.0816416848 4.7837807957
303 1 40.9934572636 13.2504953196 4.2714475184
369 1 42.0750497379 11.8099363492 5.2486210551
277 1 42.5911843339 14.3088105836 3.2651164599
2734 1 47.3213387431 12.8265778978 3.9706599692
2752 1 45.6017817574 14.9830518765 2.0612998593
2736 1 46.3159603608 12.9533354486 5.7820305323
407 1 50.7119835557 16.427599885 2.6512551244
408 1 48.9936608252 17.8696606109 2.6388797204
2763 1 49.8124930156 20.5813617586 5.2058397951
2765 1 51.4598390264 21.4331387104 4.6254723003
478 1 51.9127168645 16.9572033506 1.1582107376
435 1 49.9815578348 19.506198675 1.6490679725
90 1 10.8124891132 16.7644154874 5.1966790865
385 1 53.4783016739 18.3806798521 1.9581386419
909 1 10.4142892544 -26.8078942415 -45.668155386
105 1 8.6791515553 19.2039234493 5.7500712979
111 1 10.1641061729 20.2884725048 6.8347142131
102 1 11.560644935 16.9204572706 3.3368862942
935 1 14.9968023254 -27.1539550262 -43.3089913437
1013 1 15.9385907479 -28.8336685612 -43.8268717304
898 1 12.1891765447 -26.093387129 -46.3534768188
965 1 16.4252064621 -25.717995182 -43.7699739687
918 1 15.7320524358 -29.2705386242 -45.9744337288
535 1 19.6603632638 -27.4946188771 -91.6840137378
536 1 18.7390831899 -26.2783846356 -92.9859888328
606 1 21.6196379725 -27.7668120628 -92.6205812134
240 1 24.4196611159 19.330399421 5.5789931877
153 1 26.9557037991 16.5811074558 3.1963266717
230 1 26.7405773226 17.0202770819 5.1391571575
218 1 26.4955095958 19.0491487723 5.5345506107
1141 1 -16.5071654972 19.2184247759 97.7430755602
1063 1 -17.7860980311 20.6736258626 98.1557814386
1046 1 -16.0617541997 18.9884684639 95.6976845592
2994 1 34.6776836879 16.8762962727 50.8396843966
3067 1 33.6904671613 20.9481186114 51.6256938432
676 1 36.712374681 20.7654206679 2.2553360568
664 1 38.3420140557 17.832867601 3.7177455699
691 1 38.2752328655 19.3655029559 2.1127772223
663 1 39.3993437926 16.3930595083 2.8891566617
281 1 42.8065923895 15.9560486557 4.2458003501
2804 1 40.2623839107 21.1646060537 5.1049312109
857 1 -4.9642972289 19.9317586419 48.5362120187
2802 1 41.0994248866 19.369491994 5.3494639374
770 1 -6.0895814025 21.3718952436 47.4883621135
807 1 -1.8060584671 19.2709862187 50.5593160294
885 1 -1.0424627215 18.2994442652 48.9793143671
790 1 -2.036390218 19.0431886802 47.2019961102
837 1 -0.5210719813 21.0209068236 50.683445508
3120 1 1.6788684334 26.2278216766 4.4357771148
774 1 5.0384973017 27.0986052216 5.8486240031
903 1 4.2723955016 -22.110262225 -45.4833549849
904 1 5.0001462204 -24.1500216428 -45.6944088881
2746 1 51.5070739301 23.4535160962 4.9619124638
962 1 6.8534392271 -24.3389612576 -44.6652971372
2883 1 10.0673837322 23.5660069697 4.2253201594
2881 1 8.3553824539 22.9974517206 5.370333646
980 1 8.1029467391 -24.3453437185 -46.3890965823
2932 1 11.5132457768 22.2571801152 3.6034572828
2930 1 12.7868283067 21.9756009576 5.2793554201
967 1 15.2055932707 -24.3366616944 -44.6197610944
393 1 13.4623836357 24.9383768541 2.5436778072
2892 1 13.9815217427 23.6376219354 5.4752031102
2939 1 19.4982205989 23.1120075079 4.5876186755
3278 1 16.0141947517 -19.9256772604 -41.3312919722
3246 1 16.9809498596 -21.0310162436 -44.5835265498
3248 1 16.9274967495 -21.36984983 -42.6057051607
951 1 21.9444395308 -20.8106805528 -43.1571967128
3060 1 24.3191373566 23.4674073347 51.572273584
1090 1 -23.2011937413 23.7367377989 94.3207014696
3011 1 26.3119669149 23.1946509906 50.7064833761
3009 1 26.9505415145 25.1452906051 50.2792996361
1093 1 -16.702440643 22.4851653731 98.3431958329
1095 1 -16.6616116652 23.3786160403 96.54312598
2972 1 28.0139252033 25.8244595333 51.9013316806
3016 1 35.0818905687 22.4320407721 51.9467879426
2985 1 34.1602350559 24.3678974808 52.1465683549
775 1 -9.7293674537 25.9747758736 48.2235535616
776 1 -8.8834098045 24.0942963993 48.4111861797
781 1 -4.8745204075 23.0539083417 47.8712656538
852 1 -6.3108556905 24.926034301 50.0068483361
834 1 -8.1101465078 24.0879608682 50.2771784064
783 1 -4.8976098984 23.4924678797 49.9857158204
864 1 -8.1927899905 27.2626720107 47.3574278052
643 1 -3.5952124347 26.2409151074 1.5814608168
839 1 -1.2342650577 22.6408317175 49.8294816248
649 1 -1.7579084312 25.7662195775 4.0699964031
725 1 -1.6976035616 26.5640271908 2.118882797
871 1 0.8394715785 23.5155104408 47.4602041977
867 1 -1.1127636512 22.8528138933 47.7362925617
3118 1 2.4218525847 27.5517599459 2.9919002033
856 1 5.1517578249 29.8477563972 2.721236931
769 1 5.1164337195 31.8724513301 3.7005739342
3133 1 1.1500303937 29.1561041263 2.7609114343
787 1 5.2347345096 29.0320685074 6.3687476371
823 1 7.0190077718 26.496448193 5.3799401882
795 1 7.5836678425 26.5262486538 3.483025877
888 1 8.2262784101 28.5397273503 3.3955908556
855 1 6.9735796677 29.3365025067 1.9541261389
409 1 11.8975543971 31.8422285005 5.7368840074
499 1 13.5859499561 27.1135758468 2.7163186817
431 1 11.9117741446 28.4415970139 5.2252171341
497 1 11.8886377238 27.980933512 3.2431908295
250 1 15.2814319239 31.7973635547 50.3337195013
217 1 15.4015723645 32.3757740744 48.3504964853
150 1 16.9428428136 32.2714489965 51.4306111098
902 1 21.401179476 -19.2703487009 -41.8427007313
3264 1 17.4404870448 -18.1652443669 -45.7014014372
3261 1 18.5703703447 -19.7915517216 -45.2157656184
3204 1 17.0485757873 -18.069929822 -41.6260537274
923 1 23.3070010745 -20.2816402455 -44.4596457994
2984 1 26.6477500603 26.9822660996 53.1357136988
983 1 22.018917218 -17.0840742613 -45.5239211555
1016 1 22.6680979659 -18.9451717037 -46.0527502785
897 1 23.795869422 -15.9561150857 -42.6948953589
984 1 23.7776606365 -15.9993374864 -44.7766476151
3003 1 26.8448085408 29.0137658622 52.5636387102
3374 1 31.9686575423 -18.0867776416 -42.9797971505
533 1 26.9631187169 32.0323882916 2.2593391738
620 1 28.9642548603 28.5280887451 2.1589139673
597 1 30.487926612 31.5587721485 1.3877704923
2960 1 28.2824578599 30.1170399316 53.427148127
3371 1 32.7008572118 -14.6255597062 -42.8798740935
3389 1 34.0263910964 -18.6025837285 -43.0704750253
3392 1 34.956447054 -17.0114268387 -44.0559739191
1075 1 37.5499788152 31.9415790133 2.0824276821
1041 1 -10.8725319038 -17.7360238709 6.4649538493
3333 1 35.1764542358 -17.2297445455 -46.1069542663
1043 1 -10.0771646432 -19.2196175226 5.0578934127
1079 1 -7.4640631306 -17.6620624122 3.9624425508
1030 1 -8.1157311611 -19.2019718954 5.178775345
1051 1 -7.5350680082 -15.8571869417 5.0289752332
755 1 -2.2462605502 27.6192920139 4.9898028794
3136 1 -0.1584449561 28.7474858388 1.2123706113
665 1 -1.9521511201 -16.0787428089 4.3933759866
875 1 3.9232373461 33.1684663329 2.8672920401
804 1 4.8633738376 34.0634187556 1.0222211448
69 1 2.6097550495 -10.2132612361 1.0415379443
792 1 6.3307813807 36.8939932376 2.3625003912
862 1 4.0118737719 37.3608984108 4.9091398367
791 1 5.8808648167 36.7860076307 4.436035229
819 1 6.5032486147 34.9380036192 1.698029895
3316 1 9.4930561104 -10.0246032005 -43.0393089055
3267 1 11.4737777649 -9.5534743399 -43.3820799071
141 1 13.8016395908 35.3382683917 48.5143051602
3281 1 14.1834139987 -10.8453595151 -41.5783119812
130 1 15.6179190172 34.4806252075 48.5781626202
227 1 16.1525909077 38.0030396798 50.0244564195
231 1 16.2319493003 37.5284380096 48.0043662444
245 1 16.8939418999 34.0751042906 52.4350462019
197 1 18.6751647212 36.0665259531 50.1225351331
167 1 18.77916129 34.7431039122 51.7486782333
199 1 18.1191397446 37.935460682 50.7727811888
559 1 26.0037785268 33.2447742846 0.8696254212
537 1 26.801304561 32.839863456 4.1952944352
990 1 22.4427407801 -14.6297833936 -42.0287588527
920 1 22.0665040956 -11.7973317172 -43.6198453478
919 1 23.3757533189 -12.768779811 -42.2302381259
947 1 22.6858374528 -12.3069430626 -45.5844306393
614 1 27.2504702472 34.793647371 4.3301567728
602 1 29.2267804949 34.8410465292 4.9185962034
3377 1 35.4987215817 -14.1554163727 -41.4111572073
373 1 32.7904463138 -10.0957488676 3.2683217693
3378 1 33.7587031772 -13.0463699305 -42.398688164
1060 1 36.6721088614 33.529450813 1.3102062283
1111 1 37.3746019298 35.0494620357 2.4867049576
1112 1 39.3030906506 35.8380244667 1.8434045211
1025 1 40.8677321698 34.4562686103 2.1180896824
3139 1 -6.4476562313 36.3254379885 4.8381302661
730 1 -4.4740679155 -14.0976926454 5.0330862889
687 1 0.8084978712 -14.6817347482 3.8662222597
742 1 -3.3636605074 -14.9804433046 3.497752467
122 1 0.3124492552 -12.7674188451 3.4697681917
22 1 -0.7488695198 -12.8133631776 1.6840964197
3140 1 -2.1472385464 36.2125716762 4.4403433901
2 1 -4.3725116993 37.6242218531 96.1113149558
71 1 1.8970828946 -8.9840274235 2.6101492603
99 1 2.3972472593 -7.0683974843 2.1281702162
224 1 5.9131525601 40.7437904106 1.9707580811
55 1 6.4023494166 42.2269616935 6.1333474613
3113 1 0.3748190386 42.2938836733 7.2139544086
223 1 7.6355253374 40.7020697654 3.3021581981
27 1 7.4036449011 42.397927172 4.4129035012
771 1 10.9062549727 -4.6544662958 49.034503882
135 1 9.2069716863 37.1481184274 47.5219638929
3265 1 11.8089038923 -7.5792759359 -43.2727286412
2493 1 15.0311549826 -5.3245308312 3.9874796309
853 1 11.7821538723 -3.9753442975 50.8393371157
2478 1 15.4981540155 -6.6731072768 5.6688826408
2496 1 16.5610214758 -5.1459157856 2.7092838958
263 1 20.0781798039 -6.2473126606 2.2003342613
352 1 20.4142914584 -5.0892245152 0.5827652465
351 1 22.4567728081 -4.2908068137 0.4689603369
264 1 21.1276722542 -8.0677219147 2.043330416
322 1 23.1408224417 -7.6983839196 2.4382874215
905 1 26.1580839052 41.6281836148 3.0790677245
1011 1 24.4430791158 42.7504173475 3.211292604
3404 1 23.5906920758 -7.2400199808 -41.1168084349
269 1 26.7583637394 -9.8824526557 1.3651099403
258 1 28.5663835105 -8.7645364701 0.9993020093
3409 1 27.4488427638 -8.0063845882 -42.0973468425
327 1 31.5138602729 -5.851740874 1.0952815502
3369 1 31.9805307968 -9.2619929819 -40.4305530979
325 1 31.3570676119 -6.8286328316 2.8607124738
295 1 33.1258540204 -7.9023410894 3.1172170074
376 1 35.6383848439 -3.9910658004 3.2638728187
343 1 34.4404532476 -2.271743464 4.0161396962
283 1 35.3687258706 -5.4262747669 4.6348676582
3137 1 -7.5326276555 38.0008339764 5.5771957741
66 1 -9.2295644489 39.3891600131 96.6135864712
3100 1 -6.1755569053 39.5304188905 5.6401146369
84 1 -8.0594153295 40.4550309844 95.4505143746
3098 1 -0.772522169 37.9560628903 4.5517220259
3153 1 -1.8291948879 39.3241152277 3.5511351823
3169 1 -3.160548075 40.3426809005 4.7312287389
3117 1 -2.5878629983 42.3250920299 5.7302199673
13 1 -4.7517049649 39.4892144737 95.284589163
2337 1 2.5674337021 0.9964862177 2.7667542018
6 1 4.2580021136 42.1993200062 5.8438371574
2309 1 3.9562759673 -0.5410171716 2.8104365152
2368 1 3.1329103524 -2.081536743 1.72444202
2365 1 2.2402668789 -3.1914748525 3.2400512219
120 1 6.274512479 -1.1118719838 5.2383105649
88 1 8.6023273751 0.5005910623 3.3047111825
87 1 7.7640662229 -1.3122155545 3.7486535754
881 1 10.7995834018 -0.3731021339 53.4937415977
883 1 11.3235083544 -0.3970363623 51.5467484334
777 1 12.6600707559 -2.1673714562 50.9329950365
2465 1 16.9163274429 -2.0036801059 3.9111529073
2437 1 17.9521163742 -3.8212735684 3.907562773
2467 1 17.773689048 -1.0708552865 2.1422069372
134 1 19.8601436762 46.0994729185 5.6708067651
183 1 21.329986879 45.3322166438 4.593132934
155 1 21.8251438277 46.3201840482 2.9180232183
943 1 25.2048915268 45.3461078822 4.9987007807
1009 1 24.5802081656 43.3239940916 5.0978635741
981 1 27.6663157332 42.6286812917 2.2712218143
2608 1 -16.6060467114 -3.5536325791 52.3452130647
917 1 27.3323628522 45.4218057458 5.2004428612
2621 1 -15.8929474947 -1.153592629 50.1959944423
2624 1 -17.317503383 -0.8937419964 48.7976911175
2606 1 -15.911907158 -3.1295274378 50.4807929883
350 1 34.5648173756 1.9419478403 2.8811081907
344 1 35.7420059739 -0.9050520926 4.4328721565
257 1 35.9915320374 0.4092655555 2.8347602614
1049 1 43.1737246811 0.8061044483 3.4080272684
1139 1 41.8825434539 -4.2847528618 2.8012992715
1071 1 40.9517835483 -1.4295402035 4.2995678903
1137 1 40.3538032772 -2.5255870746 2.7284125065
1045 1 42.8353134635 -0.9903705773 4.1220228454
1033 1 43.6335903754 -3.6182080659 2.1770054281
2350 1 0.1312530672 -2.9527895865 3.1841530661
2352 1 -0.5426597167 -1.1563614907 3.9354484956
2382 1 -0.8647393432 -1.2049808253 5.9956083234
2362 1 3.6014956146 5.3168946148 7.8848636815
2381 1 1.656919338 5.4685062193 8.9992131978
872 1 5.1952336468 1.6544038976 9.4431227398
2354 1 2.1050150235 1.2758319833 8.5704620004
2508 1 8.5284128462 3.7265636905 54.7967022198
2500 1 10.2654746696 4.5385206564 53.9536542219
859 1 7.269284713 1.0776331072 9.7048505668
2546 1 7.4649822276 5.2023575995 55.7846226943
1359 1 10.7035179792 1.3625297366 -36.124785409
789 1 12.784387954 2.3951917314 53.6219070443
2458 1 12.0852269057 4.0320160677 54.7012468854
2509 1 16.4816630833 3.979440546 8.2137950674
1336 1 12.7750958418 3.7742960507 -36.205692487
2507 1 17.166651314 2.2507463165 7.6695964155
2481 1 15.8979025596 0.941801058 8.7056199961
2490 1 17.774017557 4.6763348821 9.8857182457
1001 1 21.3573000573 49.6399225358 9.9582718087
1007 1 21.9221947773 50.8684617865 8.2940451274
987 1 24.6444551434 49.8050968697 6.3562173646
1000 1 23.9616256862 51.1666118776 7.9800843666
1008 1 24.5114089914 47.9792897432 7.2150337953
986 1 26.0373333765 47.8141939699 8.5091246739
926 1 22.1945287526 50.4178882045 11.6791897604
1005 1 23.6202578874 48.9559245251 12.3146200594
2586 1 -19.3099575024 5.3457095486 55.1440770406
2641 1 -17.7071620073 4.5791337569 56.241015579
2657 1 -17.0876409307 5.9706885679 57.5819424575
998 1 27.7228192842 47.6146034358 7.41068438
2635 1 -13.7539314238 3.5140934441 56.1492207736
2618 1 -11.6717943427 5.3400263426 54.1888197483
2637 1 -12.306473764 5.2341478864 56.1765339519
1129 1 37.9212878644 1.1876418604 7.1859372824
1135 1 39.7692918759 0.7847044324 6.5099595846
1054 1 37.6086880695 2.7562700712 8.4589097242
2371 1 -6.4480786 4.2456501746 6.8020510308
1133 1 37.5971433241 2.0913068115 10.4321695309
2420 1 -5.9592102525 4.1053862102 9.0016066206
1134 1 39.1353164025 2.8652646701 11.49212734
1115 1 42.0033409125 0.7303127251 8.8017792784
2353 1 0.5616468097 2.4099699442 9.0698426365
2379 1 0.5218972186 4.1332625468 7.9538036452
2380 1 -2.8293171259 5.0415899794 8.5883892068
2372 1 -2.8285193183 5.6494536789 6.6604167145
2376 1 4.1812717932 7.5626432654 5.7070366167
2345 1 2.6865322998 9.0526663079 6.1647435374
2492 1 4.8994957505 10.2141803331 58.4490654734
2377 1 2.7476068191 9.6143697975 8.2925903017
2514 1 2.2947759108 -36.7471692071 -81.3607586609
2494 1 4.5075000192 8.5443689985 57.6965921045
2548 1 6.9428875395 6.4557086669 54.1944513315
2460 1 7.2784829655 10.4646919237 53.2561826484
2499 1 8.3922223937 7.870643934 54.4094839482
2558 1 8.7204498317 8.9095302361 58.652084046
2497 1 7.7542578822 9.6770211601 55.0690361951
2466 1 11.3440167031 9.6734075609 56.322579675
2550 1 12.3384604281 10.7492276624 54.9595957625
2529 1 14.570069112 7.4291278149 6.5821377087
2477 1 15.3366214388 7.6177389206 8.5190738042
2505 1 16.2144444627 9.5767320501 8.8213021
2555 1 19.1255036539 6.0748728563 9.2062677384
2473 1 18.2137503415 9.2426853094 8.4072868786
2504 1 18.8633534582 7.9834633165 9.9656397966
2588 1 -25.0176608872 8.6723467256 53.5252315335
2619 1 -25.251371588 9.6190158536 56.6822970488
2600 1 -24.4528600268 8.1590279213 55.3890509077
2658 1 -21.7178816688 8.1281480737 57.5120169666
2681 1 -20.6733637836 6.8924379404 58.7716143984
2601 1 -15.8253684969 7.4584120473 53.4229244396
2628 1 -18.9088479923 6.6766075161 53.7271707194
2605 1 -15.3631563096 6.8414721129 56.6480382513
2617 1 -20.4311587782 9.3449454735 56.4108547409
137 1 27.8343246306 11.6250327024 6.8258913995
2633 1 -15.9815041398 8.2960161815 55.2872131124
2632 1 -13.7563717765 7.5956349567 52.8668525331
2364 1 -10.5986023133 7.4505747607 10.1761671468
695 1 35.5734808481 9.5010811164 7.2400474105
646 1 33.8114992692 10.5065533584 7.3611733782
2386 1 -12.4260041164 8.8870039035 10.9808734494
2369 1 -8.0195718787 5.4163812242 6.6312732717
2418 1 -4.6231640794 5.5681805481 9.3680818943
2344 1 -6.8759850599 8.5390659244 7.4189440353
2363 1 -8.3268685994 9.4816521545 8.6187058961
2349 1 0.9657182508 8.9418179795 9.2148089728
2338 1 -4.4777753744 9.836488823 9.3843196257
2401 1 -0.5082131998 9.900313432 8.1790200415
2422 1 -4.7475282074 11.8281451347 9.3919691928
402 1 50.5059896299 13.1341092678 9.6047491763
401 1 52.277568365 12.7889870803 8.4723785939
447 1 50.4017349468 15.2018858118 10.1810947821
403 1 52.3403652102 14.0534182876 6.9024809304
2448 1 9.8441383901 13.0596785105 55.165993285
106 1 8.2609595763 16.0190285273 8.7961007654
54 1 9.3317112531 16.7912593671 10.397065996
2894 1 14.7722429472 14.0059252697 6.6417855603
2476 1 11.7863775597 12.6965352569 55.4603842943
1696 1 15.9648245394 -31.8918528623 -83.5343620383
1675 1 15.412413162 -33.9524491378 -83.3824031529
1743 1 14.3968510002 -30.948656544 -84.4271556874
518 1 20.1902952385 -33.8110964007 -87.4731851549
531 1 19.326691962 -32.4434195022 -85.9565059522
529 1 20.2169044689 -32.5640761713 -84.0739146342
530 1 19.5756548673 -34.3129643193 -82.6630622649
2576 1 -24.3975766522 11.5650563418 56.3572608412
2604 1 -23.3937000254 12.2289261358 58.0182493622
2678 1 -21.3797989602 12.5259452172 57.4564520129
239 1 23.8866317705 15.915829766 8.2329424502
233 1 23.8612896463 15.7404528807 10.2034333952
243 1 27.1226333097 13.5530990544 6.5280275806
1845 1 -16.4929926796 14.0881463837 55.3540412325
1893 1 -17.8273963076 13.4842060205 56.7352808603
1911 1 -16.1285823198 16.0700882145 55.503935204
2993 1 35.2081318911 16.5191600411 52.7324923451
659 1 34.5746257163 12.5516158504 7.0929692305
657 1 35.1370800836 13.2238860892 8.964391242
658 1 33.5447030174 13.7521755188 10.1181149105
367 1 37.2675079902 15.8085950368 9.2013401031
2320 1 -7.9888797506 11.4494680976 8.2413898249
360 1 38.2912359476 15.1091054794 7.5410086002
2348 1 -6.7152033609 12.24089325 9.7087457451
346 1 42.7546879647 14.8176710513 7.4011576185
368 1 41.4806361362 16.1615545109 8.2893521414
358 1 44.0212310157 15.9471319824 6.0393469525
2766 1 47.6089718526 13.7024767975 7.1199538998
1655 1 -1.4890941953 13.6182376995 9.7006738093
2692 1 47.3963326588 15.6023383038 7.5271642916
2738 1 50.3159987863 17.449779157 6.8300212272
2737 1 49.9581961507 19.3685533968 6.985499852
1592 1 2.936513583 19.5227649155 10.6516135545
110 1 6.4153020578 17.0936284525 8.5384558362
30 1 6.9725002809 19.6933549551 6.7236781653
109 1 6.850811155 19.020521558 8.6187058961
104 1 10.8722308245 18.8809521555 8.2361806105
112 1 12.2058366448 16.4382060333 6.507847741
91 1 12.6484321508 18.2028156842 7.4875554901
2913 1 15.9422982068 21.5710186379 7.6860218663
1764 1 13.6266381444 -29.8169429796 -82.9385874706
2865 1 18.3631280847 18.923235959 5.6216242722
2891 1 20.2341746572 18.9049802436 6.0621079344
2866 1 17.531343253 17.4716015417 6.8646085337
2893 1 20.9979581223 20.7528434656 6.5994078971
1744 1 17.6734937978 -28.2264900376 -83.4145031769
2861 1 17.7693715009 21.5002014798 8.7131757035
1702 1 19.4174073807 -27.1246707938 -82.9413094025
2874 1 21.1647937732 21.8508144609 5.0060218388
219 1 23.7954470533 19.1744984274 7.6678600107
232 1 22.6602606793 17.4786879505 7.8187395093
3006 1 23.6603359875 21.1882117731 58.0866730975
1771 1 20.9087444592 -28.6275995477 -83.0182274424
1806 1 -17.1213834997 17.4220905399 54.2548969907
1804 1 -18.7000101171 18.6157984488 55.2374674612
1802 1 -17.959644652 19.9838038562 56.4434240635
3019 1 33.8852730085 17.4231229968 54.1205837325
3002 1 32.9166407063 20.4384603361 53.4639411369
3021 1 34.1919127112 19.3867152525 54.717062248
2816 1 -11.3923270288 21.652207295 56.746074728
2755 1 38.3348807171 21.4350628346 6.040848708
347 1 39.7570901124 16.6203408184 7.2223548534
2814 1 -8.7216895083 19.5918456688 56.3966819233
2764 1 42.4835741658 19.4790732162 7.0380143649
2809 1 -5.9234966294 21.0806954648 56.7606699144
2812 1 -6.8960710398 19.5870118933 57.4484739367
2756 1 44.1233973201 20.4128835626 6.3252436572
1547 1 -2.2284741334 17.7110376854 9.31603668
1568 1 -1.0144925252 19.4322841462 9.7448348072
1546 1 -3.3580758541 17.5729700385 11.068256848
3150 1 1.7957566347 27.1321600712 6.396201605
2811 1 51.9615614624 23.5182323726 6.9633020284
2760 1 50.536719302 24.3048706793 8.0564861781
2729 1 49.5312611389 23.2020659085 9.5551443147
2761 1 48.0268245287 22.2837424157 8.5440874193
2942 1 7.7545394614 22.5919308037 10.685872352
2844 1 8.7426476553 23.1673847422 7.3198281718
2856 1 8.2217262137 25.1087791743 8.0315664226
2937 1 11.1863323748 22.2635156462 9.9956749068
2897 1 14.339737361 22.112166849 8.9360456068
2884 1 13.1655992036 24.7349828426 6.9553708822
2842 1 14.3439610484 24.1305262509 8.8002775229
2888 1 19.924062145 24.5016006508 6.0188855337
2889 1 18.3047004094 23.3538840043 8.9595574664
2857 1 18.2290025459 24.5192932078 7.2158785328
914 1 20.8045601709 -20.4029539325 -37.7959577095
2167 1 17.792414062 25.9752451722 -34.9930249148
3004 1 22.7848125267 22.635622503 56.8959686996
3058 1 24.6718152516 22.9019963862 53.4114735538
3020 1 25.549779065 24.4644791318 54.7589706127
3012 1 26.8663493464 23.3678691024 55.7871569067
2970 1 28.5369584886 23.2584286698 54.7794789613
3025 1 29.5391456404 25.2572652501 54.877515438
3041 1 31.3392342653 25.1118765451 55.9866088101
3017 1 33.9945726515 24.3468729037 54.2285224096
2989 1 32.3398258019 23.5384591421 55.3511315812
2750 1 -10.9942210298 23.6547982641 57.0633675088
2728 1 40.8005755407 25.1104686493 6.3407305109
2753 1 38.7506323433 22.675090515 7.5434489529
2716 1 38.8520477699 24.7805048064 7.0410178759
2747 1 41.8984526763 25.9882916732 7.83187987
2745 1 -7.0480768551 24.3434939538 57.3048685663
2021 1 0.1327548227 26.3307388587 57.841136072
2714 1 43.3952805483 22.4716495736 6.4778126308
2733 1 47.130193425 23.3876735032 6.993524858
2769 1 43.866362479 23.5932732181 8.0895247992
2785 1 45.604926058 24.5677717528 7.6332727041
1973 1 -1.7929650363 27.1289219109 57.5286301369
786 1 3.9111153634 28.3834978477 9.4866736495
831 1 2.5212828782 29.995913964 9.684060639
785 1 5.6317611219 28.9949939183 8.4477873474
860 1 3.4683602959 31.3624645458 10.8112689368
475 1 6.3018256573 32.599864154 7.3793821637
2875 1 9.5196184109 26.6210469702 7.2450689055
2832 1 11.0901730925 26.4296670028 8.5504229504
474 1 8.6990498158 31.0355980736 5.8357652216
2860 1 10.6414767048 27.245214103 10.417105046
486 1 10.3470856955 31.4206575717 7.0194301405
405 1 13.0801868591 30.0682798075 5.7862542197
2058 1 14.0290147606 27.6002854207 -36.8910561567
2059 1 14.3195105916 29.1510357015 -38.2092689831
2080 1 12.8844424147 30.5326038384 -37.4794627364
3243 1 18.7847459433 -17.9958275737 -40.541823795
3250 1 18.2329446541 -17.2611406216 -38.5285797478
959 1 21.4559466222 -18.6505460451 -36.9347009261
3275 1 20.6729219147 -15.1442285146 -38.3002659809
3249 1 18.6058493185 -15.3479510351 -38.6097214751
3277 1 20.8133360546 -14.964909521 -36.2323486473
2062 1 17.046323154 27.8829439651 -35.2993361085
913 1 22.4493109604 -20.8120884486 -39.0022428208
915 1 22.8124072842 -19.1989683844 -40.3442960159
621 1 25.5433027444 31.6941647935 10.3902142365
542 1 24.132825814 32.0534597986 8.7297888738
3376 1 31.597395423 -18.2847277894 -40.9574346317
3332 1 31.1903727506 -15.0726604787 -41.3070620857
3001 1 27.3494453211 27.5183928157 58.9845351714
2978 1 27.1621013216 27.4931445512 56.9032428279
2988 1 27.8672224622 30.3626708168 55.4579439416