ITEM: TIMESTEP
0
ITEM: NUMBER OF ATOMS
512
ITEM: BOX BOUNDS pp pp pp
2.5208830869999999e-01 2.5085452691299999e+01
2.5208830869999999e-01 2.5085452691299999e+01
2.5208830869999999e-01 2.5085452691299999e+01
ITEM: ATOMS id type xs ys zs
1 1 0.0635581 0.069046 0.146897
3 1 0.0385456 0.0152747 0.0920044
25 1 0.0472271 0.197106 0.0754667
102 1 0.0566328 0.15017 0.323069
103 1 0.1634 0.119542 0.247713
105 1 0.135555 0.163741 0.320576
2 1 0.201268 0.126816 0.0801877
5 1 0.248626 0.061355 0.0683456
6 1 0.399923 0.146603 0.230607
107 1 0.324211 0.14755 0.199709
31 1 0.241799 0.19459 0.0444233
12 1 0.394459 0.0153014 0.101816
127 1 0.28632 0.224576 0.211223
108 1 0.20335 0.0463694 0.272213
8 1 0.530599 0.0998368 0.0956771
112 1 0.456245 0.188101 0.180059
11 1 0.463231 0.154735 0.104051
115 1 0.52172 0.0166761 0.233757
113 1 0.543187 0.170576 0.281467
116 1 0.584377 0.0141472 0.289782
133 1 0.493991 0.236134 0.320277
438 1 0.551711 0.245207 0.00564487
9 1 0.601259 0.14324 0.110828
13 1 0.620394 0.0952794 0.169921
14 1 0.693428 0.0613532 0.14598
15 1 0.747912 0.13584 0.0141837
119 1 0.754238 0.0864425 0.195955
96 1 0.778233 0.0164841 0.0342036
193 1 0.759546 0.017982 0.244189
19 1 0.798458 0.197621 0.0600742
17 1 0.770559 0.203488 0.136504
117 1 0.600532 0.148983 0.333068
137 1 0.67325 0.189761 0.316747
18 1 0.997715 0.0956464 0.204327
20 1 0.92758 0.108933 0.161012
21 1 0.928472 0.190895 0.133855
23 1 0.848463 0.00714394 0.0758063
22 1 0.965927 0.192998 0.0607798
123 1 0.881143 0.0355919 0.292256
121 1 0.809054 0.169472 0.327194
124 1 0.809557 0.234944 0.281799
27 1 0.0476722 0.278662 0.109559
28 1 0.128693 0.283629 0.209003
29 1 0.0517558 0.261136 0.194922
30 1 0.114985 0.370092 0.224621
429 1 0.109286 0.349491 0.0234623
26 1 0.175964 0.379019 0.0570894
46 1 0.0924186 0.403291 0.152607
49 1 0.155606 0.439433 0.112371
47 1 0.0157073 0.483547 0.0391895
144 1 0.0190765 0.489099 0.319571
32 1 0.231572 0.258379 0.0981727
33 1 0.302583 0.271374 0.140215
35 1 0.313094 0.369327 0.0277804
34 1 0.39827 0.344583 0.18573
146 1 0.308075 0.498369 0.194767
52 1 0.383664 0.41321 0.0416358
129 1 0.386389 0.328009 0.263455
125 1 0.225571 0.292945 0.315072
130 1 0.25071 0.361943 0.273682
131 1 0.334413 0.384793 0.292656
36 1 0.51037 0.360939 0.0781055
37 1 0.530519 0.391819 0.153291
55 1 0.450053 0.409992 0.172059
38 1 0.50198 0.423985 0.0282738
54 1 0.575761 0.447051 0.00937484
138 1 0.623777 0.395801 0.235774
39 1 0.616809 0.279075 0.170037
40 1 0.752752 0.281164 0.145851
41 1 0.679976 0.305053 0.121875
136 1 0.622568 0.311755 0.242351
59 1 0.609296 0.477995 0.0737368
154 1 0.707952 0.432129 0.249823
140 1 0.73743 0.375273 0.299496
43 1 0.884225 0.358754 0.149718
44 1 0.884994 0.326161 0.024053
45 1 0.899952 0.388787 0.0731334
142 1 0.889577 0.251176 0.262814
141 1 0.822549 0.401326 0.193688
162 1 0.861595 0.473065 0.223166
143 1 0.901008 0.329028 0.299303
160 1 0.964764 0.428923 0.304294
163 1 0.88676 0.460945 0.302129
104 1 0.0403764 0.0691247 0.363135
204 1 0.129265 0.0509594 0.477473
205 1 0.127425 0.132543 0.459519
206 1 0.187748 0.0164522 0.426975
306 1 0.0321811 0.0587865 0.62429
307 1 0.173263 0.0316126 0.613502
207 1 0.176 0.171354 0.519667
304 1 0.131089 0.176939 0.587904
242 1 0.00280793 0.210854 0.568228
226 1 0.0753026 0.238456 0.584964
305 1 0.097592 0.00354194 0.606796
211 1 0.368559 0.155046 0.499322
109 1 0.312644 0.143703 0.342705
208 1 0.263705 0.167655 0.405918
209 1 0.289749 0.127675 0.479101
111 1 0.379143 0.0194598 0.412531
128 1 0.359003 0.218802 0.350237
311 1 0.34295 0.055922 0.63513
212 1 0.372879 0.0337099 0.559146
332 1 0.27866 0.216615 0.630654
231 1 0.356205 0.232244 0.530118
331 1 0.356959 0.235588 0.61465
110 1 0.429323 0.0450197 0.351082
213 1 0.543055 0.164792 0.486661
114 1 0.50472 0.0549958 0.383712
216 1 0.599892 0.104853 0.482723
132 1 0.440721 0.199824 0.372065
214 1 0.528004 0.167382 0.571922
215 1 0.461878 0.0439888 0.557984
336 1 0.576638 0.22359 0.603075
120 1 0.699326 0.0697496 0.37803
217 1 0.682419 0.115674 0.446316
218 1 0.697085 0.0458966 0.597355
322 1 0.633141 0.0170406 0.640367
318 1 0.659899 0.193003 0.620221
219 1 0.699232 0.216978 0.551352
122 1 0.964206 0.0791042 0.389801
220 1 0.968175 0.120619 0.462529
224 1 0.816254 0.0248216 0.417856
223 1 0.834378 0.18944 0.405566
323 1 0.858735 0.112337 0.612166
346 1 0.962095 0.188309 0.64537
221 1 0.944441 0.0694179 0.518364
222 1 0.858338 0.0948117 0.534956
246 1 0.884661 0.200197 0.625587
126 1 0.0546612 0.346057 0.388788
225 1 0.00508156 0.279054 0.381456
227 1 0.0641716 0.356572 0.477191
229 1 0.198621 0.311635 0.390868
247 1 0.00583137 0.41115 0.492283
349 1 0.0789226 0.481789 0.600517
350 1 0.15319 0.4708 0.641741
230 1 0.275912 0.307372 0.435087
232 1 0.314805 0.379617 0.443218
228 1 0.203154 0.306337 0.560123
248 1 0.231121 0.383057 0.547553
333 1 0.232178 0.28612 0.638744
233 1 0.307891 0.395143 0.534166
234 1 0.478375 0.291329 0.46878
134 1 0.544086 0.376376 0.352465
135 1 0.462535 0.378645 0.356849
235 1 0.561599 0.287853 0.461619
237 1 0.585979 0.362535 0.423274
252 1 0.432789 0.444759 0.391017
236 1 0.473649 0.327016 0.54389
251 1 0.45509 0.408294 0.534111
254 1 0.525751 0.450755 0.542747
359 1 0.539461 0.478641 0.62268
139 1 0.679901 0.25985 0.36157
238 1 0.709706 0.255047 0.437588
156 1 0.707468 0.398898 0.379152
158 1 0.702548 0.479581 0.386722
239 1 0.718927 0.352413 0.554214
240 1 0.759784 0.281254 0.573757
341 1 0.656122 0.378206 0.593102
363 1 0.777151 0.435746 0.642795
241 1 0.800194 0.263443 0.418154
243 1 0.926096 0.307959 0.375629
245 1 0.82574 0.372129 0.488764
261 1 0.847702 0.417617 0.416548
263 1 0.878762 0.488532 0.437596
259 1 0.943133 0.377573 0.546551
244 1 0.88989 0.323424 0.509686
367 1 0.952336 0.472957 0.663799
309 1 0.179003 0.0655408 0.741477
389 1 0.0302918 0.0654588 0.760008
308 1 0.0189308 0.143997 0.759655
409 1 0.095419 0.0329745 0.882877
410 1 0.0752344 0.164869 0.911322
430 1 0.162407 0.193408 0.817126
431 1 0.137674 0.211252 0.895437
408 1 0.0981425 0.0905492 0.945712
310 1 0.208989 0.00619909 0.688936
312 1 0.231337 0.128867 0.727345
7 1 0.389049 0.0750336 0.984062
412 1 0.355557 0.0808679 0.776288
413 1 0.290545 0.12865 0.791905
414 1 0.344036 0.0535248 0.917286
415 1 0.262447 0.0787132 0.937157
4 1 0.232804 0.0267068 0.996922
411 1 0.385993 0.161412 0.989239
313 1 0.448972 0.130729 0.688931
314 1 0.524856 0.0889675 0.701387
316 1 0.499356 0.00850439 0.698394
315 1 0.407003 0.141844 0.757907
416 1 0.517093 0.0545355 0.86556
417 1 0.518419 0.179547 0.956586
419 1 0.443721 0.195772 0.929115
421 1 0.578861 0.100585 0.837947
338 1 0.529009 0.240618 0.817358
317 1 0.451738 0.000618821 0.761759
319 1 0.725281 0.124219 0.746782
320 1 0.654678 0.0155552 0.721881
342 1 0.741407 0.205096 0.756548
422 1 0.650735 0.0680055 0.881539
423 1 0.617344 0.0363707 0.94792
321 1 0.78648 0.0854338 0.786018
424 1 0.68222 0.211316 0.917791
16 1 0.675921 0.167377 0.986652
324 1 0.853355 0.0956096 0.74109
403 1 0.98992 0.0282772 0.691046
325 1 0.886187 0.172408 0.757708
425 1 0.830874 0.0939939 0.928189
426 1 0.94474 0.157717 0.808431
427 1 0.833357 0.174927 0.895872
428 1 0.905239 0.0614751 0.918038
24 1 0.944967 0.0574654 0.993827
444 1 0.963492 0.221809 0.918505
447 1 0.876572 0.220347 0.943912
326 1 0.0674681 0.258651 0.738155
327 1 0.0375762 0.387465 0.73828
330 1 0.154343 0.394039 0.673757
329 1 0.119198 0.407198 0.752274
345 1 0.0177366 0.316189 0.774146
328 1 0.143581 0.264815 0.769974
432 1 0.0635184 0.367618 0.892741
446 1 0.00139053 0.277813 0.963347
449 1 0.0937363 0.415611 0.954381
469 1 0.00778205 0.495387 0.868434
354 1 0.302189 0.412683 0.698926
355 1 0.369998 0.452517 0.678384
334 1 0.333052 0.278691 0.754471
335 1 0.312715 0.36493 0.763681
435 1 0.203162 0.330899 0.90182
436 1 0.271211 0.283803 0.87576
437 1 0.343712 0.31208 0.909765
434 1 0.345269 0.301509 0.989331
454 1 0.364771 0.480449 0.989566
433 1 0.212997 0.401114 0.861248
455 1 0.226371 0.453015 0.93431
456 1 0.347273 0.471247 0.852409
337 1 0.41429 0.275756 0.752951
340 1 0.562494 0.251721 0.743551
357 1 0.504741 0.398099 0.715483
360 1 0.572373 0.425324 0.675077
339 1 0.458499 0.295694 0.821639
439 1 0.575443 0.297673 0.946734
459 1 0.404394 0.490001 0.919065
457 1 0.511132 0.41492 0.852386
361 1 0.489015 0.454716 0.78395
460 1 0.593495 0.449864 0.870097
344 1 0.792123 0.375402 0.694151
343 1 0.638525 0.291425 0.74802
440 1 0.687224 0.251627 0.798684
441 1 0.656274 0.295438 0.940653
465 1 0.665043 0.408456 0.847412
463 1 0.705076 0.449362 0.780083
464 1 0.761564 0.485908 0.819467
347 1 0.873048 0.359627 0.704271
42 1 0.803517 0.33823 0.992892
442 1 0.801449 0.330808 0.848855
443 1 0.989015 0.349671 0.920752
445 1 0.86966 0.30567 0.828896
348 1 0.899907 0.37533 0.78234
467 1 0.810572 0.379029 0.922006
50 1 0.129406 0.573162 0.0287161
48 1 0.0459418 0.551107 0.00444743
51 1 0.120684 0.596402 0.111182
165 1 0.185056 0.531505 0.248434
66 1 0.0667181 0.657721 0.119872
67 1 0.109866 0.729617 0.0998036
69 1 0.163251 0.749892 0.220125
177 1 0.00937251 0.632325 0.291448
269 1 0.187526 0.589547 0.308813
166 1 0.239744 0.555154 0.18678
148 1 0.373509 0.545827 0.203858
70 1 0.3965 0.652608 0.124758
71 1 0.306422 0.673815 0.110909
475 1 0.274816 0.623207 0.0534834
168 1 0.360458 0.703011 0.239834
169 1 0.304295 0.686338 0.297692
53 1 0.404865 0.575128 0.127784
56 1 0.517433 0.580297 0.0622548
152 1 0.530472 0.544358 0.227503
58 1 0.599342 0.561395 0.0709001
151 1 0.520395 0.614138 0.188274
74 1 0.528495 0.68014 0.238336
171 1 0.420693 0.747692 0.274663
172 1 0.472896 0.68899 0.297277
153 1 0.610178 0.523281 0.231283
60 1 0.730758 0.523574 0.146137
61 1 0.777725 0.524918 0.0752438
461 1 0.728022 0.520531 0.000265997
62 1 0.74054 0.603806 0.165626
77 1 0.606557 0.718118 0.115244
78 1 0.628381 0.745771 0.0387081
80 1 0.755298 0.690228 0.0430903
155 1 0.638143 0.555609 0.303618
161 1 0.776449 0.603109 0.290396
175 1 0.698542 0.706011 0.297496
63 1 0.98273 0.512716 0.11095
64 1 0.900248 0.527755 0.0850346
159 1 0.806949 0.613742 0.211221
65 1 0.891192 0.609837 0.074995
81 1 0.942512 0.741264 0.183086
82 1 0.876911 0.723015 0.135458
83 1 0.923506 0.734567 0.26358
178 1 0.926065 0.654046 0.286637
488 1 0.926785 0.625446 0.000818401
68 1 0.107528 0.780646 0.169672
84 1 0.0686828 0.94176 0.111748
88 1 0.17872 0.952215 0.185349
87 1 0.178451 0.886948 0.014602
85 1 0.177208 0.802557 0.00561486
86 1 0.000549978 0.889419 0.125221
106 1 0.150805 0.979887 0.256836
183 1 0.015007 0.928455 0.282799
181 1 0.0525157 0.795993 0.309135
182 1 0.0708644 0.862744 0.266578
89 1 0.2413 0.774816 0.197546
72 1 0.384073 0.837692 0.159468
496 1 0.339735 0.797622 0.026996
90 1 0.255096 0.897813 0.0572004
92 1 0.396271 0.792685 0.0953188
185 1 0.255733 0.91263 0.195699
495 1 0.3244 0.880217 0.0185146
186 1 0.257263 0.844329 0.241657
91 1 0.367263 0.947277 0.14371
190 1 0.391368 0.954148 0.226726
10 1 0.466334 0.988569 0.058648
76 1 0.54623 0.833997 0.13128
93 1 0.581114 0.874031 0.0533831
191 1 0.458232 0.90417 0.231759
95 1 0.521489 0.946049 0.193173
75 1 0.603988 0.791628 0.162085
79 1 0.708867 0.761705 0.0346785
174 1 0.717841 0.754027 0.233699
94 1 0.608837 0.945867 0.066358
97 1 0.744483 0.940114 0.0359209
98 1 0.684106 0.934131 0.0973001
194 1 0.739621 0.84117 0.242792
200 1 0.818139 0.833032 0.263161
99 1 0.918691 0.992626 0.0336997
509 1 0.887569 0.828392 0.0529489
201 1 0.836691 0.986599 0.232728
203 1 0.940088 0.898793 0.246698
100 1 0.845136 0.797643 0.119828
101 1 0.939438 0.921848 0.170892
145 1 0.0207185 0.522349 0.39354
164 1 0.0329221 0.653373 0.365372
264 1 0.00685624 0.74822 0.466367
170 1 0.179022 0.717841 0.404767
351 1 0.0298346 0.516253 0.6596
265 1 0.0024151 0.729078 0.550762
266 1 0.00597545 0.648164 0.559906
267 1 0.0815899 0.623487 0.542516
369 1 0.145811 0.660433 0.59584
149 1 0.22855 0.558169 0.374395
150 1 0.312646 0.566521 0.349063
249 1 0.3408 0.522298 0.494914
270 1 0.376181 0.593589 0.482883
271 1 0.293256 0.698915 0.476242
268 1 0.212633 0.711495 0.481435
167 1 0.335689 0.644351 0.360308
353 1 0.316456 0.525791 0.575182
372 1 0.259484 0.587078 0.576012
374 1 0.297784 0.654161 0.604334
250 1 0.430535 0.505188 0.335809
253 1 0.494123 0.551324 0.354913
275 1 0.498635 0.534892 0.439552
255 1 0.461856 0.5963 0.486405
173 1 0.572912 0.698954 0.394846
274 1 0.50821 0.724862 0.445557
276 1 0.494884 0.699521 0.589932
277 1 0.413392 0.722121 0.595412
379 1 0.514236 0.639387 0.639771
157 1 0.621571 0.50374 0.37134
279 1 0.6823 0.689991 0.467702
278 1 0.617552 0.647669 0.448889
176 1 0.773212 0.672895 0.333423
256 1 0.657592 0.56666 0.538948
257 1 0.716047 0.506765 0.533327
260 1 0.792819 0.538368 0.525872
258 1 0.659334 0.602356 0.613311
282 1 0.792558 0.722857 0.528562
280 1 0.661867 0.728599 0.542535
281 1 0.696351 0.679797 0.600009
147 1 0.988745 0.593353 0.409146
262 1 0.820048 0.551295 0.450834
180 1 0.878597 0.69583 0.429499
365 1 0.906297 0.512554 0.60507
368 1 0.865131 0.584087 0.641449
284 1 0.855042 0.68077 0.512333
187 1 0.166181 0.795616 0.376572
184 1 0.084679 0.820854 0.38526
287 1 0.123884 0.865978 0.498437
286 1 0.058618 0.886623 0.538284
289 1 0.196388 0.885349 0.538621
393 1 0.164124 0.80919 0.648493
288 1 0.0181866 0.958799 0.503003
273 1 0.340046 0.772929 0.478194
272 1 0.339179 0.78687 0.393793
188 1 0.298016 0.859623 0.378362
290 1 0.398278 0.939568 0.415327
189 1 0.356864 0.908659 0.349824
210 1 0.25183 0.997466 0.474193
291 1 0.249253 0.919224 0.480749
377 1 0.242779 0.799214 0.662561
292 1 0.366421 0.88189 0.576513
394 1 0.309239 0.924528 0.627246
118 1 0.548997 0.988951 0.364955
293 1 0.522849 0.808138 0.451346
192 1 0.516917 0.845944 0.380029
378 1 0.414556 0.782633 0.65353
396 1 0.429188 0.854462 0.619136
294 1 0.527304 0.940794 0.506846
295 1 0.495586 0.972111 0.580549
297 1 0.741837 0.999051 0.398574
197 1 0.791415 0.860062 0.385732
198 1 0.719579 0.852817 0.418917
196 1 0.657368 0.884058 0.367833
195 1 0.600415 0.83079 0.338879
298 1 0.647114 0.869291 0.529123
395 1 0.624031 0.823648 0.644118
299 1 0.73729 0.985133 0.54998
400 1 0.676495 0.870697 0.602331
404 1 0.789307 0.939969 0.599184
296 1 0.613117 0.94534 0.507332
179 1 0.931511 0.763966 0.443696
300 1 0.983398 0.937319 0.431269
301 1 0.901103 0.907946 0.452955
199 1 0.811907 0.797512 0.340739
202 1 0.86486 0.985539 0.35718
285 1 0.82081 0.804924 0.618623
385 1 0.897386 0.785254 0.634111
283 1 0.817476 0.806266 0.535064
302 1 0.896071 0.891474 0.533008
303 1 0.872911 0.95511 0.578364
405 1 0.944417 0.861416 0.6462
370 1 0.115865 0.655374 0.677393
371 1 0.0601782 0.715856 0.702848
352 1 0.159933 0.537139 0.799491
448 1 0.0874258 0.589177 0.795631
450 1 0.0546658 0.571345 0.869341
451 1 0.179721 0.522096 0.934264
472 1 0.0730714 0.674058 0.949409
473 1 0.143664 0.69369 0.902111
486 1 0.0028412 0.69149 0.906968
356 1 0.354577 0.533473 0.68052
373 1 0.303238 0.642853 0.695349
375 1 0.232659 0.673804 0.726273
452 1 0.20378 0.559856 0.861996
453 1 0.341514 0.546838 0.822213
358 1 0.386798 0.559409 0.758073
476 1 0.267565 0.673894 0.985688
477 1 0.323618 0.644503 0.933958
480 1 0.379843 0.703686 0.930281
381 1 0.562363 0.680256 0.697682
57 1 0.495132 0.590713 0.982276
481 1 0.595408 0.613396 0.835654
73 1 0.438838 0.707676 0.993445
380 1 0.513824 0.682509 0.768063
479 1 0.505542 0.669048 0.963522
382 1 0.517223 0.602754 0.80537
362 1 0.764755 0.511008 0.677171
383 1 0.772755 0.699493 0.731811
458 1 0.635053 0.578672 0.773386
462 1 0.687284 0.59026 0.991552
364 1 0.711314 0.61189 0.794431
466 1 0.741712 0.563839 0.856225
483 1 0.74862 0.648321 0.974979
484 1 0.685201 0.733544 0.867511
366 1 0.833566 0.555862 0.705459
386 1 0.983139 0.687988 0.685668
468 1 0.925325 0.507883 0.854523
470 1 0.881554 0.527276 0.922218
471 1 0.867091 0.613167 0.941664
388 1 0.819053 0.672975 0.800659
387 1 0.955034 0.654074 0.761473
489 1 0.893932 0.703455 0.794663
390 1 0.155138 0.89199 0.676158
474 1 0.15623 0.774589 0.886332
493 1 0.025278 0.940677 0.944753
391 1 0.113178 0.886522 0.751555
490 1 0.0220824 0.993997 0.876058
491 1 0.0527958 0.869022 0.921754
492 1 0.154685 0.878912 0.819632
497 1 0.184466 0.951455 0.847712
376 1 0.248093 0.75895 0.742009
392 1 0.352179 0.973042 0.674523
478 1 0.220022 0.792601 0.938518
498 1 0.252764 0.965557 0.805121
499 1 0.328872 0.855413 0.823777
500 1 0.315083 0.932344 0.859377
397 1 0.587369 0.875897 0.698668
418 1 0.468078 0.965416 0.977131
398 1 0.404285 0.860017 0.780772
420 1 0.499875 0.986434 0.824629
501 1 0.462246 0.809521 0.808904
502 1 0.44202 0.878895 0.966295
503 1 0.507509 0.837617 0.941066
504 1 0.522057 0.85499 0.851895
505 1 0.595935 0.961346 0.926324
402 1 0.697534 0.940567 0.743109
399 1 0.737813 0.773508 0.738501
384 1 0.664559 0.75376 0.787828
482 1 0.641662 0.792966 0.916087
506 1 0.689905 0.860141 0.940244
401 1 0.634848 0.888329 0.7652
507 1 0.662989 0.927276 0.893127
494 1 0.999718 0.821244 0.880292
487 1 0.964241 0.763941 0.927637
508 1 0.833495 0.929133 0.768755
511 1 0.811159 0.914503 0.899991
407 1 0.948318 0.859527 0.732014
406 1 0.867912 0.853673 0.753931
512 1 0.867884 0.94249 0.844983
510 1 0.837328 0.828176 0.918917
485 1 0.828973 0.807631 0.993555
ITEM: TIMESTEP
250
ITEM: NUMBER OF ATOMS
512
ITEM: BOX BOUNDS pp pp pp
2.5208830869999999e-01 2.5085452691299999e+01
2.5208830869999999e-01 2.5085452691299999e+01
2.5208830869999999e-01 2.5085452691299999e+01
ITEM: ATOMS id type xs ys zs
1 1 0.105312 0.0553151 0.132281
42 1 0.797242 0.343642 0.00557944
25 1 0.0648763 0.199822 0.0843484
102 1 0.0967035 0.175843 0.301769
103 1 0.183258 0.0867566 0.24384
105 1 0.15714 0.125286 0.31901
2 1 0.211936 0.119598 0.0576024
5 1 0.280289 0.0726031 0.0603569
6 1 0.382202 0.112522 0.209455
107 1 0.309891 0.115764 0.171663
31 1 0.224455 0.191009 0.0142326
12 1 0.41775 0.031704 0.0960775
127 1 0.276188 0.186379 0.179472
108 1 0.232671 0.0401416 0.284369
8 1 0.498648 0.157443 0.0749308
112 1 0.413894 0.187969 0.189091
11 1 0.421179 0.197326 0.105818
115 1 0.524823 0.0245983 0.237035
113 1 0.519848 0.178651 0.297413
116 1 0.576459 0.0302828 0.307073
133 1 0.48299 0.241622 0.333397
165 1 0.167994 0.492175 0.26947
9 1 0.568426 0.189011 0.117451
13 1 0.56996 0.134779 0.179552
14 1 0.640823 0.0930174 0.162646
15 1 0.748713 0.130016 0.0363369
119 1 0.695548 0.111536 0.225418
96 1 0.756322 0.00220995 0.0254171
193 1 0.715455 0.0348783 0.257326
19 1 0.81699 0.178366 0.0732557
17 1 0.782872 0.204889 0.141174
201 1 0.794743 0.0174065 0.226348
137 1 0.654398 0.202406 0.317718
18 1 0.043514 0.0490481 0.184548
20 1 0.964087 0.0765713 0.157613
21 1 0.963903 0.159877 0.156262
23 1 0.83012 0.0145997 0.0715958
22 1 0.987135 0.181024 0.0730327
123 1 0.84967 0.0601214 0.277042
144 1 0.999124 0.481253 0.285753
124 1 0.812485 0.227267 0.262181
27 1 0.0523451 0.287803 0.0990411
28 1 0.116163 0.28931 0.21341
29 1 0.0424307 0.284089 0.184534
30 1 0.124934 0.373754 0.234348
429 1 0.0879993 0.387519 0.0345614
26 1 0.164998 0.38591 0.0648036
46 1 0.104604 0.420467 0.171754
49 1 0.164418 0.446002 0.121759
16 1 0.689648 0.178499 0.0124457
163 1 0.871507 0.459439 0.261315
32 1 0.230002 0.241026 0.0787461
33 1 0.301849 0.241004 0.115983
35 1 0.32084 0.376013 0.0309619
34 1 0.369085 0.344142 0.163849
146 1 0.301997 0.489034 0.214631
52 1 0.359692 0.459535 0.0435838
129 1 0.384571 0.316662 0.236623
125 1 0.229595 0.26582 0.319603
130 1 0.257615 0.336494 0.283419
131 1 0.334073 0.35358 0.295492
36 1 0.510715 0.370395 0.0804026
37 1 0.498447 0.405092 0.15798
55 1 0.42117 0.419031 0.155758
38 1 0.535026 0.422533 0.0225019
54 1 0.619333 0.435836 0.0460907
138 1 0.638876 0.376583 0.242836
39 1 0.622842 0.313438 0.128828
40 1 0.762219 0.286446 0.145719
41 1 0.710408 0.324958 0.0964642
136 1 0.636188 0.301655 0.204322
59 1 0.608023 0.491794 0.106595
154 1 0.711344 0.415075 0.239504
140 1 0.758483 0.398977 0.308908
43 1 0.943518 0.35127 0.12968
44 1 0.877682 0.318405 0.0161314
45 1 0.923334 0.378202 0.0462722
142 1 0.886856 0.21174 0.276658
141 1 0.870153 0.365949 0.165749
162 1 0.866955 0.45583 0.182218
143 1 0.930695 0.274813 0.312756
160 1 0.941993 0.420989 0.294333
60 1 0.764477 0.48005 0.106855
104 1 0.0294484 0.115499 0.308402
305 1 0.10887 0.0184955 0.595973
204 1 0.111771 0.0519828 0.468075
205 1 0.107574 0.137944 0.460617
206 1 0.185419 0.0285777 0.428262
306 1 0.0391971 0.0520026 0.619647
307 1 0.179732 0.060901 0.616171
207 1 0.157219 0.173944 0.515719
304 1 0.106533 0.18409 0.582145
242 1 0.984089 0.221971 0.528358
226 1 0.0570587 0.251802 0.55745
367 1 0.951786 0.479346 0.638792
211 1 0.399528 0.18286 0.513119
109 1 0.324441 0.148039 0.352957
208 1 0.294212 0.13804 0.431324
209 1 0.34288 0.127691 0.498461
121 1 0.78599 0.180019 0.331004
128 1 0.352086 0.227077 0.340416
311 1 0.339874 0.0119616 0.614201
299 1 0.742197 -0.0045464 0.546961
332 1 0.250871 0.220103 0.609485
231 1 0.370919 0.252636 0.544096
331 1 0.332529 0.226984 0.621233
110 1 0.412869 0.0518541 0.362864
213 1 0.539503 0.114396 0.495037
114 1 0.481785 0.0706109 0.399819
216 1 0.603602 0.0639532 0.509792
132 1 0.416201 0.2303 0.389474
214 1 0.529469 0.160563 0.568134
215 1 0.468725 0.0268428 0.564811
336 1 0.584508 0.223093 0.571075
120 1 0.680926 0.064886 0.394618
217 1 0.661726 0.104498 0.46673
218 1 0.707665 0.0575318 0.599504
244 1 0.89427 0.334612 0.513815
318 1 0.624535 0.182928 0.626386
219 1 0.69657 0.178833 0.593777
122 1 0.960687 0.135257 0.33739
220 1 0.961769 0.144729 0.437533
224 1 0.812768 0.0238836 0.403323
223 1 0.817167 0.196867 0.400759
323 1 0.828116 0.160155 0.586892
346 1 0.943757 0.224447 0.610497
221 1 0.907449 0.0932584 0.472734
222 1 0.832158 0.13505 0.508387
246 1 0.866971 0.238896 0.591956
126 1 0.0422488 0.350632 0.385161
225 1 0.0318548 0.264521 0.392741
227 1 0.063914 0.372567 0.462026
229 1 0.193956 0.292071 0.392858
247 1 0.998624 0.411853 0.498628
349 1 0.0846125 0.482769 0.604261
322 1 0.642336 0.0259522 0.641664
230 1 0.250839 0.278441 0.44665
232 1 0.295308 0.363939 0.456805
228 1 0.181941 0.331208 0.585933
248 1 0.23387 0.396779 0.572215
333 1 0.221615 0.288965 0.645068
233 1 0.312185 0.373088 0.53427
234 1 0.482643 0.315591 0.503934
134 1 0.587679 0.416394 0.392449
135 1 0.517443 0.393921 0.350757
235 1 0.564932 0.315429 0.473958
237 1 0.586217 0.394848 0.472659
252 1 0.451959 0.436059 0.374793
236 1 0.48077 0.352473 0.576125
251 1 0.462031 0.429425 0.555148
254 1 0.532865 0.470943 0.566251
117 1 0.592423 0.153413 0.343856
139 1 0.650263 0.267608 0.375478
238 1 0.690627 0.237075 0.44164
156 1 0.700947 0.408865 0.370497
158 1 0.708353 0.492862 0.381678
239 1 0.682423 0.323413 0.582524
240 1 0.743043 0.266359 0.602682
341 1 0.619027 0.357851 0.620671
363 1 0.786814 0.431138 0.636449
241 1 0.764581 0.259476 0.435905
243 1 0.95178 0.263318 0.39469
245 1 0.836423 0.395107 0.508698
261 1 0.834525 0.42644 0.424756
202 1 0.875072 0.00812069 0.34326
259 1 0.957413 0.371859 0.556058
118 1 0.535623 0.00777371 0.371941
210 1 0.246018 0.0199729 0.485181
297 1 0.7332 0.00149555 0.40275
355 1 0.400904 0.442859 0.670526
309 1 0.191894 0.0786356 0.742136
389 1 0.0333403 0.0234402 0.754361
308 1 0.0245074 0.106593 0.759955
409 1 0.126831 0.0257723 0.906451
410 1 0.090058 0.146065 0.938115
430 1 0.155177 0.176787 0.821356
431 1 0.153919 0.190004 0.906328
408 1 0.128854 0.0802886 0.967177
310 1 0.21236 0.0267725 0.686864
312 1 0.250571 0.136646 0.726184
7 1 0.396679 0.118564 0.972249
412 1 0.366215 0.100901 0.780748
413 1 0.293356 0.141318 0.78789
414 1 0.37676 0.0779991 0.903723
415 1 0.289966 0.0682363 0.924364
4 1 0.281311 0.0175383 0.986051
411 1 0.421847 0.197319 0.946226
313 1 0.470771 0.107537 0.678463
314 1 0.533752 0.0685699 0.711988
445 1 0.875685 0.351582 0.835391
315 1 0.423892 0.147856 0.74357
416 1 0.53072 0.053722 0.874366
417 1 0.556492 0.203752 0.961193
419 1 0.496472 0.195379 0.907348
421 1 0.596763 0.0972688 0.85325
338 1 0.523559 0.227289 0.78819
467 1 0.810033 0.403129 0.945124
319 1 0.724577 0.129306 0.725736
320 1 0.661964 0.00285837 0.724861
342 1 0.743758 0.207021 0.725786
422 1 0.668154 0.060212 0.864303
423 1 0.663089 0.0227949 0.939823
321 1 0.774947 0.100293 0.784674
424 1 0.703694 0.218366 0.940393
442 1 0.806889 0.345935 0.883381
324 1 0.831368 0.0573936 0.745653
403 1 0.0140663 0.000384159 0.674851
325 1 0.887667 0.11646 0.723384
425 1 0.839036 0.0909661 0.913665
426 1 0.949002 0.123875 0.78095
427 1 0.847257 0.16411 0.872081
428 1 0.908169 0.0457738 0.913736
24 1 0.928178 0.0537915 0.990924
444 1 0.965486 0.222821 0.905064
447 1 0.879234 0.216407 0.928461
326 1 0.0857664 0.247687 0.722835
327 1 0.0249767 0.382641 0.719452
330 1 0.149272 0.438543 0.707307
329 1 0.0847894 0.423216 0.759589
345 1 0.0303809 0.305561 0.75408
328 1 0.156414 0.2407 0.769757
432 1 0.0766897 0.372287 0.907558
446 1 -0.00719471 0.286918 0.949159
449 1 0.0828476 0.430297 0.961145
443 1 1.00109 0.358523 0.900069
354 1 0.333809 0.391759 0.678282
348 1 0.867649 0.406694 0.776222
334 1 0.379425 0.27652 0.736862
335 1 0.346873 0.359895 0.75069
435 1 0.212582 0.3259 0.875203
436 1 0.297144 0.285594 0.883664
437 1 0.362044 0.32898 0.904726
434 1 0.367048 0.328698 0.992211
469 1 -0.00119671 0.499951 0.829811
433 1 0.228022 0.399676 0.845303
455 1 0.25073 0.452972 0.910223
456 1 0.385368 0.474168 0.856167
337 1 0.449147 0.299201 0.701282
340 1 0.593405 0.218941 0.745775
357 1 0.559372 0.424643 0.731237
360 1 0.575435 0.494807 0.693284
339 1 0.501553 0.303157 0.764364
439 1 0.612627 0.321729 0.927294
459 1 0.417976 0.499296 0.926601
457 1 0.514847 0.432548 0.852884
361 1 0.492411 0.450947 0.777753
460 1 0.578204 0.481089 0.876818
344 1 0.765352 0.37486 0.687514
343 1 0.638255 0.283262 0.764374
440 1 0.711155 0.245943 0.792589
441 1 0.689553 0.300596 0.955762
465 1 0.64266 0.423207 0.873746
463 1 0.685163 0.417036 0.805877
464 1 0.759246 0.471308 0.80475
347 1 0.837824 0.350826 0.711469
438 1 0.558831 0.283215 0.985594
50 1 0.135799 0.605164 0.0741419
48 1 0.0707029 0.567092 0.039588
51 1 0.0825437 0.637362 0.142149
485 1 0.799657 0.818958 0.00543104
66 1 0.0360792 0.694422 0.123117
67 1 0.0744165 0.767802 0.130028
69 1 0.149897 0.72522 0.221126
177 1 0.989445 0.644793 0.28435
269 1 0.170848 0.547964 0.327949
166 1 0.224465 0.522219 0.208218
148 1 0.364857 0.54617 0.217358
70 1 0.375105 0.625282 0.10262
71 1 0.293564 0.626879 0.102988
475 1 0.263425 0.588382 0.0369926
168 1 0.346987 0.687592 0.224221
169 1 0.294419 0.694117 0.290557
53 1 0.395561 0.552014 0.147118
56 1 0.510587 0.580613 0.0578893
152 1 0.536386 0.558849 0.2463
58 1 0.590486 0.565101 0.0643979
151 1 0.513394 0.628672 0.209919
74 1 0.516071 0.699957 0.257782
171 1 0.393974 0.752625 0.241538
172 1 0.443163 0.714051 0.297879
153 1 0.625916 0.544672 0.24572
195 1 0.581351 0.862042 0.293075
101 1 0.934265 0.969517 0.188487
176 1 0.786878 0.640535 0.300573
62 1 0.735512 0.543326 0.156055
77 1 0.6145 0.712698 0.143435
78 1 0.648844 0.7127 0.0674764
80 1 0.77518 0.652534 0.0617515
155 1 0.649658 0.579648 0.316688
161 1 0.799287 0.565476 0.269742
175 1 0.712123 0.678621 0.261726
63 1 0.99698 0.524241 0.141846
64 1 0.912812 0.527119 0.0922519
159 1 0.804945 0.58092 0.189366
65 1 0.895113 0.603867 0.0675331
81 1 0.961123 0.790114 0.192942
82 1 0.899359 0.771802 0.132572
83 1 0.928778 0.763666 0.262372
178 1 0.915363 0.677376 0.270644
488 1 0.948194 0.608417 0.000306679
68 1 0.0900486 0.779869 0.213758
84 1 0.0605511 0.928774 0.134027
88 1 0.180016 0.917928 0.248394
87 1 0.168929 0.905095 0.0396194
85 1 0.148677 0.823196 0.0449413
86 1 0.971709 0.924892 0.127773
106 1 0.187584 0.972225 0.306223
183 1 0.969694 0.923895 0.310392
181 1 0.0575924 0.829013 0.325822
182 1 0.0447045 0.901183 0.288064
89 1 0.211887 0.763537 0.186591
72 1 0.396019 0.816958 0.146247
496 1 0.33282 0.788425 0.020287
90 1 0.242227 0.897463 0.0785183
92 1 0.390259 0.764642 0.0868567
185 1 0.259184 0.880361 0.230052
495 1 0.311769 0.868682 0.033682
186 1 0.250882 0.80467 0.255053
91 1 0.361879 0.98558 0.141588
190 1 0.373096 0.98825 0.225028
10 1 0.47671 0.977647 0.074778
76 1 0.541582 0.826139 0.11374
93 1 0.582828 0.881396 0.0671348
191 1 0.426948 0.927564 0.244874
95 1 0.506595 0.950175 0.207794
75 1 0.58782 0.792322 0.163273
79 1 0.729916 0.724059 0.0699785
174 1 0.740987 0.740031 0.209998
94 1 0.622762 0.929948 0.121324
97 1 0.728641 0.924908 0.0420947
98 1 0.698864 0.899476 0.118445
194 1 0.705602 0.812909 0.22628
200 1 0.766931 0.866737 0.261239
99 1 0.894749 0.988416 0.0252864
509 1 0.844404 0.876852 0.0693948
100 1 0.841094 0.832356 0.134418
203 1 0.910714 0.913335 0.250354
61 1 0.798591 0.507564 0.0272562
199 1 0.798159 0.828574 0.325832
3 1 0.0856631 0.983207 0.0808918
47 1 0.0536422 0.505182 0.0877697
150 1 0.300953 0.567915 0.344945
145 1 0.0287822 0.507581 0.35412
164 1 0.00475716 0.639816 0.369282
264 1 0.990319 0.778882 0.426449
170 1 0.188988 0.737428 0.415764
351 1 0.01956 0.515732 0.649583
265 1 0.996999 0.761393 0.507434
266 1 0.982074 0.676362 0.52454
267 1 0.0498389 0.633217 0.52382
369 1 0.111055 0.663273 0.580924
149 1 0.232271 0.537589 0.377283
350 1 0.138768 0.505497 0.657742
249 1 0.308324 0.521278 0.490863
270 1 0.358961 0.584479 0.476298
271 1 0.286554 0.730319 0.503921
268 1 0.214043 0.768956 0.487754
167 1 0.325014 0.647416 0.355075
353 1 0.283976 0.533084 0.569403
372 1 0.246532 0.604186 0.56994
374 1 0.311876 0.653412 0.608621
212 1 0.396855 0.99043 0.544368
253 1 0.487944 0.559315 0.362295
275 1 0.499026 0.540893 0.440653
255 1 0.442332 0.582773 0.496734
173 1 0.591962 0.69202 0.378528
274 1 0.522135 0.732002 0.407789
276 1 0.502518 0.690031 0.573803
277 1 0.423835 0.70693 0.599503
379 1 0.527054 0.631908 0.624853
157 1 0.631527 0.525331 0.37162
279 1 0.650339 0.717982 0.488526
278 1 0.615341 0.650753 0.448231
385 1 0.906448 0.786387 0.62465
256 1 0.655316 0.524025 0.523173
257 1 0.740638 0.503086 0.526123
260 1 0.7732 0.57775 0.498278
258 1 0.649711 0.568667 0.59473
282 1 0.778793 0.758905 0.507739
280 1 0.622897 0.707339 0.574628
281 1 0.675545 0.64446 0.592411
147 1 0.972275 0.563846 0.388631
262 1 0.811495 0.56452 0.420327
180 1 0.873744 0.716951 0.416472
365 1 0.907802 0.526802 0.582802
368 1 0.868458 0.583783 0.627631
284 1 0.846263 0.714032 0.49335