ITEM: TIMESTEP
0
ITEM: NUMBER OF ATOMS
512
ITEM: BOX BOUNDS pp pp pp
1.8332206818000001e+00 2.6666779318200000e+01
1.8332206818000001e+00 2.6666779318200000e+01
1.8332206818000001e+00 2.6666779318200000e+01
ITEM: ATOMS id type xs ys zs
211 1 0.0515791 0.138215 0.122897
209 1 0.102706 0.0798829 0.159612
210 1 0.177372 0.101533 0.176422
503 1 0.153212 0.2195 0.0483713
215 1 0.0119291 0.229714 0.206289
212 1 0.173391 0.139845 0.253485
238 1 0.0479449 0.0132984 0.329013
239 1 0.187971 0.00814886 0.311837
214 1 0.148568 0.212682 0.24484
216 1 0.0634912 0.22349 0.269547
63 1 0.0784428 0.0582219 0.00929424
501 1 0.208964 0.156247 0.0488961
389 1 0.338801 0.166955 0.165737
391 1 0.375514 0.126537 0.233249
132 1 0.374607 0.0278308 0.0374761
387 1 0.282604 0.217844 0.193456
497 1 0.326065 0.195499 0.00377855
218 1 0.282057 0.19084 0.331425
130 1 0.434509 0.0448899 0.0901535
129 1 0.502019 0.00255979 0.0891157
298 1 0.569149 0.0384556 0.215853
131 1 0.563346 0.0387902 0.0357919
176 1 0.583207 0.16217 0.0589439
175 1 0.525143 0.160186 0.120372
173 1 0.45937 0.182781 0.0778354
392 1 0.452111 0.163047 0.246431
390 1 0.45377 0.212132 0.313044
299 1 0.677758 0.0545242 0.133792
297 1 0.645065 0.0709898 0.210818
464 1 0.766503 0.172774 0.0926379
463 1 0.755137 0.232455 0.0386779
174 1 0.620731 0.240411 0.0745043
462 1 0.789992 0.209621 0.169637
409 1 0.666492 0.242776 0.286464
213 1 0.994117 0.15115 0.176749
441 1 0.808467 0.0575507 0.19293
442 1 0.84849 0.0740343 0.124071
443 1 0.861791 0.0610224 0.257555
460 1 0.871842 0.21605 0.163376
444 1 0.846818 0.00944638 0.0814004
59 1 0.949351 0.113914 0.015232
504 1 0.176892 0.275755 0.102345
254 1 0.0469996 0.367575 0.0772733
252 1 0.0221251 0.36884 0.00225573
256 1 0.0772983 0.445936 0.0872076
255 1 0.161374 0.453827 0.0758171
489 1 0.0179744 0.432318 0.211668
322 1 0.17997 0.35448 0.236083
321 1 0.149838 0.344782 0.313985
323 1 0.0775939 0.385839 0.324321
502 1 0.210511 0.335813 0.0521543
385 1 0.317294 0.297678 0.206104
500 1 0.288921 0.31653 0.0497668
386 1 0.357571 0.30682 0.281555
326 1 0.217841 0.484141 0.215084
396 1 0.297261 0.460208 0.10073
398 1 0.36975 0.417933 0.11824
400 1 0.389494 0.432978 0.198513
324 1 0.240848 0.408293 0.246051
171 1 0.428666 0.255321 0.101799
170 1 0.529345 0.341387 0.0591203
169 1 0.451598 0.309164 0.0393766
413 1 0.557618 0.281104 0.217691
415 1 0.545559 0.363265 0.204526
172 1 0.584008 0.289567 0.0202877
263 1 0.541485 0.485408 0.0491669
388 1 0.434378 0.286173 0.275395
416 1 0.541519 0.391586 0.27889
411 1 0.642698 0.266197 0.211645
285 1 0.66464 0.37869 0.135172
283 1 0.741148 0.351543 0.125353
287 1 0.650628 0.451512 0.1005
281 1 0.79087 0.374766 0.184992
410 1 0.706417 0.302912 0.330897
414 1 0.619964 0.410131 0.311436
457 1 0.92808 0.25728 0.0536701
458 1 0.887929 0.2865 0.125506
491 1 0.976284 0.365462 0.216678
1 1 0.832142 0.419507 0.0320673
282 1 0.813837 0.446504 0.156951
2 1 0.907776 0.433612 0.0548573
490 1 0.961543 0.49001 0.187891
493 1 0.953082 0.352446 0.300047
495 1 0.886739 0.399045 0.311547
371 1 0.0081972 0.146572 0.426651
223 1 0.155718 0.14952 0.467349
224 1 0.177341 0.230287 0.474292
384 1 0.0269146 0.0513245 0.644339
382 1 0.0807216 0.0846028 0.585709
380 1 0.157949 0.0862684 0.615286
378 1 0.197827 0.0235658 0.581935
217 1 0.316157 0.13555 0.384219
221 1 0.223781 0.105881 0.474229
219 1 0.254846 0.0812207 0.397688
424 1 0.328236 0.0326496 0.66124
51 1 0.332324 0.182174 0.620975
422 1 0.384273 0.035704 0.595098
49 1 0.270856 0.235185 0.596646
228 1 0.43708 0.168357 0.46855
226 1 0.447896 0.083517 0.458048
225 1 0.459625 0.080446 0.372295
229 1 0.5813 0.135573 0.344446
227 1 0.541971 0.0696681 0.373555
230 1 0.5056 0.195493 0.492055
232 1 0.55634 0.238165 0.430504
420 1 0.453282 0.0669058 0.62567
418 1 0.511202 0.01409 0.652053
53 1 0.407908 0.213718 0.606904
451 1 0.7349 0.152858 0.454641
449 1 0.794163 0.12553 0.401615
231 1 0.611788 0.181125 0.403732
314 1 0.611061 0.160293 0.55105
316 1 0.603508 0.0788641 0.529102
313 1 0.608895 0.146792 0.633489
319 1 0.758309 0.0617693 0.60887
315 1 0.685325 0.165756 0.66122
453 1 0.767264 0.179456 0.528301
320 1 0.706055 0.00626363 0.577975
318 1 0.671583 0.0406473 0.506295
370 1 0.921135 0.0469556 0.439682
369 1 0.94582 0.107914 0.382624
450 1 0.806992 0.191426 0.352046
452 1 0.872281 0.244195 0.387268
373 1 0.981071 0.209956 0.466996
372 1 0.86568 0.0703517 0.498601
375 1 0.990266 0.200559 0.549336
374 1 0.902457 0.09057 0.568324
376 1 0.910401 0.173405 0.576805
222 1 0.183624 0.25892 0.399241
435 1 0.131588 0.392437 0.492841
437 1 0.0820063 0.339751 0.452204
439 1 0.000589943 0.367084 0.458704
325 1 0.0912924 0.458319 0.355465
433 1 0.149478 0.369809 0.572629
436 1 0.0346602 0.374946 0.642492
434 1 0.10611 0.419473 0.619341
220 1 0.26351 0.262371 0.367391
121 1 0.33066 0.328881 0.475525
122 1 0.291451 0.399409 0.460804
124 1 0.293124 0.424736 0.38196
126 1 0.353886 0.48512 0.375817
50 1 0.237114 0.284885 0.647466
52 1 0.267187 0.35952 0.623193
54 1 0.337274 0.376701 0.663485
37 1 0.227475 0.489033 0.55397
43 1 0.379185 0.471782 0.556381
123 1 0.412467 0.338543 0.488346
125 1 0.443546 0.328265 0.407993
128 1 0.417433 0.439677 0.334606
127 1 0.470352 0.399572 0.388205
56 1 0.409675 0.348253 0.623966
55 1 0.427419 0.271673 0.658735
161 1 0.551248 0.307532 0.57218
163 1 0.561055 0.329175 0.652185
162 1 0.550391 0.373064 0.519741
47 1 0.482398 0.477305 0.638511
45 1 0.460147 0.459475 0.56246
412 1 0.652822 0.357878 0.364396
164 1 0.624569 0.380319 0.484427
279 1 0.781194 0.491204 0.465788
277 1 0.778019 0.476937 0.378761
167 1 0.684112 0.382435 0.661368
168 1 0.720705 0.385161 0.587428
455 1 0.763535 0.265785 0.522541
166 1 0.671357 0.430456 0.536146
454 1 0.835166 0.305888 0.423267
496 1 0.909857 0.477402 0.350992
362 1 0.836507 0.317115 0.653875
456 1 0.839487 0.293633 0.504807
440 1 0.969782 0.340443 0.533171
438 1 0.976815 0.396736 0.59114
346 1 0.949233 0.497164 0.499754
355 1 0.122033 0.169466 0.719359
353 1 0.0994578 0.244743 0.681981
26 1 0.0271088 0.0627767 0.798772
62 1 0.118113 0.166938 0.934573
64 1 0.11671 0.0832416 0.935167
60 1 0.0568998 0.197567 0.891755
61 1 0.00132819 0.0495551 0.998321
312 1 0.165151 0.0508355 0.793879
357 1 0.201045 0.169806 0.738614
308 1 0.270759 0.0489454 0.878802
134 1 0.380951 0.078176 0.968584
359 1 0.225091 0.181076 0.819402
473 1 0.359962 0.173803 0.849102
474 1 0.376 0.156529 0.767909
310 1 0.248807 0.0445768 0.802067
499 1 0.252188 0.166515 0.976338
478 1 0.51137 0.142796 0.744468
476 1 0.440433 0.10568 0.765001
135 1 0.506573 0.0587524 0.920528
480 1 0.557539 0.152147 0.811659
477 1 0.476001 0.205559 0.918544
136 1 0.42809 0.0356916 0.910634
479 1 0.548366 0.2107 0.870029
475 1 0.406199 0.235616 0.877827
133 1 0.548838 0.00194225 0.963027
317 1 0.729428 0.0965356 0.683011
481 1 0.713257 0.0684018 0.996786
483 1 0.671524 0.0934482 0.924452
485 1 0.723581 0.144001 0.885507
487 1 0.761456 0.0934584 0.821956
30 1 0.945323 0.130974 0.721757
32 1 0.874464 0.0919657 0.711097
31 1 0.881522 0.012372 0.689243
58 1 0.986195 0.215837 0.929034
28 1 0.975342 0.128557 0.79877
488 1 0.823379 0.0546537 0.851713
57 1 0.934405 0.14969 0.938102
461 1 0.814405 0.215341 0.984079
365 1 0.805293 0.22274 0.794946
25 1 0.97747 0.00172844 0.83934
250 1 0.0757226 0.329536 0.950648
354 1 0.085132 0.295189 0.744481
356 1 0.151305 0.329717 0.765859
358 1 0.187759 0.307866 0.838339
249 1 0.0973334 0.395971 0.909759
9 1 0.0386985 0.460715 0.801792
251 1 0.175021 0.420297 0.937103
10 1 0.114767 0.496819 0.816673
253 1 0.160764 0.481955 0.993732
33 1 0.200105 0.497649 0.675155
360 1 0.255258 0.258635 0.834856
104 1 0.352598 0.376689 0.890381
498 1 0.320901 0.274897 0.983118
101 1 0.274307 0.485752 0.882197
103 1 0.324211 0.441733 0.930928
82 1 0.571354 0.342152 0.843575
102 1 0.433769 0.388046 0.869375
100 1 0.421907 0.423247 0.796028
84 1 0.587411 0.425861 0.844904
86 1 0.599902 0.460608 0.924377
262 1 0.439846 0.495197 0.963895
165 1 0.642059 0.316549 0.669556
361 1 0.793697 0.251594 0.67615
81 1 0.648222 0.31045 0.844296
83 1 0.669042 0.275791 0.914098
85 1 0.730726 0.328213 0.9413
363 1 0.755151 0.26493 0.749215
87 1 0.702034 0.389163 0.985538
88 1 0.684589 0.458841 0.93976
73 1 0.725915 0.472086 0.778402
364 1 0.92006 0.303251 0.680182
11 1 0.999736 0.493529 0.732053
77 1 0.832606 0.462731 0.695838
366 1 0.935537 0.345492 0.750287
368 1 0.928051 0.289146 0.817694
367 1 0.850248 0.28145 0.839334
3 1 0.838469 0.389914 0.951229
75 1 0.804146 0.494508 0.76904
5 1 0.825292 0.454176 0.901465
7 1 0.903108 0.482544 0.883794
459 1 0.876525 0.273826 0.988914
402 1 0.0407133 0.593812 0.0933357
403 1 0.168627 0.607911 0.0711752
407 1 0.188925 0.651749 0.195292
405 1 0.193441 0.677073 0.117893
401 1 0.0974714 0.619621 0.033267
408 1 0.11541 0.676799 0.230254
406 1 0.0541018 0.627834 0.216109
404 1 0.0129684 0.653986 0.144226
328 1 0.183653 0.526352 0.277924
327 1 0.100503 0.505209 0.287348
394 1 0.320359 0.53559 0.072384
393 1 0.305676 0.584718 0.138432
397 1 0.383957 0.559428 0.246535
395 1 0.373406 0.611778 0.185682
119 1 0.349443 0.716825 0.122885
117 1 0.382991 0.690535 0.0520168
18 1 0.286064 0.72502 0.283714
17 1 0.334306 0.67847 0.333273
115 1 0.322459 0.648693 0.0037387
399 1 0.438156 0.503133 0.212196
261 1 0.572888 0.561409 0.0550213
264 1 0.455884 0.506888 0.0408334
334 1 0.522328 0.646133 0.142342
332 1 0.478109 0.716901 0.16344
336 1 0.52203 0.5919 0.204978
335 1 0.586899 0.610045 0.252443
331 1 0.590429 0.728506 0.3122
333 1 0.561051 0.650867 0.323069
154 1 0.786015 0.561783 0.00702433
288 1 0.651059 0.503009 0.160484
286 1 0.72702 0.543755 0.149568
284 1 0.781316 0.509192 0.200434
508 1 0.653156 0.707641 0.0328015
512 1 0.670553 0.718365 0.165423
511 1 0.754397 0.73918 0.181023
510 1 0.677801 0.668108 0.103205
156 1 0.79981 0.625461 0.0587751
273 1 0.725897 0.591675 0.315037
506 1 0.714517 0.749841 0.00254458
4 1 0.92205 0.512323 0.0542894
158 1 0.877994 0.648297 0.0478611
181 1 0.903186 0.689658 0.228181
183 1 0.853438 0.70463 0.296066
492 1 0.950773 0.544953 0.246388
494 1 0.881425 0.527633 0.297528
69 1 0.0771799 0.77263 0.013198
431 1 0.190852 0.878233 0.239814
429 1 0.132537 0.847601 0.188678
427 1 0.0875457 0.905242 0.14362
425 1 0.132409 0.913899 0.0761253
426 1 0.167751 0.991946 0.0772439
177 1 0.00283035 0.783353 0.210605
178 1 0.00806672 0.836484 0.276321
240 1 0.119406 0.981361 0.284651
116 1 0.228542 0.802171 0.0139638
118 1 0.240496 0.795306 0.0938582
432 1 0.25359 0.910113 0.199446
430 1 0.256779 0.989242 0.175018
120 1 0.322268 0.793382 0.113606
428 1 0.245087 0.987394 0.0926415
265 1 0.388711 0.944964 0.192731
269 1 0.339378 0.99244 0.312669
268 1 0.377106 0.811348 0.236457
270 1 0.380986 0.811898 0.324685
267 1 0.405037 0.998249 0.26706
330 1 0.526183 0.778042 0.194773
266 1 0.424589 0.87121 0.205596
302 1 0.550367 0.91518 0.17977
292 1 0.459997 0.850343 0.0555079
290 1 0.524653 0.821603 0.0136781
300 1 0.565564 0.964407 0.249176
329 1 0.531019 0.777063 0.276952
507 1 0.781532 0.833767 0.087367
110 1 0.765744 0.807899 0.30365
301 1 0.715288 0.980261 0.133375
505 1 0.717865 0.830291 0.0395658
304 1 0.629496 0.882431 0.161008
303 1 0.661697 0.929014 0.0992154
509 1 0.760442 0.823252 0.166221
108 1 0.705158 0.856691 0.28064
105 1 0.706578 0.984612 0.328038
106 1 0.729733 0.937924 0.262994
71 1 0.999664 0.780805 0.0396977
179 1 0.924678 0.762399 0.191834
446 1 0.920196 0.956508 0.0897658
447 1 0.938885 0.954927 0.229695
72 1 0.964217 0.852582 0.020857
448 1 0.90655 0.916478 0.157949
445 1 0.87425 0.978587 0.271491
348 1 0.0192354 0.51414 0.464519
23 1 0.153255 0.6329 0.369095
24 1 0.148725 0.710379 0.399479
352 1 0.0156392 0.654145 0.447935
36 1 0.0948723 0.57914 0.638446
40 1 0.133438 0.564341 0.509501
38 1 0.112792 0.623024 0.560907
151 1 0.131251 0.742578 0.664546
190 1 0.336122 0.72997 0.480414
21 1 0.230219 0.617049 0.398948
19 1 0.29421 0.598655 0.351702
35 1 0.266934 0.508017 0.627326
39 1 0.215536 0.552669 0.504264
41 1 0.371171 0.539786 0.510219
42 1 0.346428 0.603757 0.555675
188 1 0.251617 0.742515 0.509566
468 1 0.535596 0.558683 0.487084
466 1 0.498831 0.572222 0.418357
465 1 0.450176 0.64096 0.435249
467 1 0.490477 0.707601 0.416716
469 1 0.536125 0.73606 0.481525
48 1 0.502467 0.559044 0.634728
46 1 0.436333 0.602751 0.657901
44 1 0.412585 0.645055 0.595866
91 1 0.548558 0.749983 0.611882
470 1 0.619198 0.589311 0.483904
275 1 0.710753 0.509788 0.338612
471 1 0.613919 0.715946 0.472426
278 1 0.775377 0.623566 0.487669
274 1 0.699375 0.642878 0.370904
276 1 0.765755 0.668356 0.41595
80 1 0.743245 0.528049 0.603403
78 1 0.693284 0.581201 0.639612
244 1 0.752071 0.730281 0.579807
472 1 0.623948 0.65725 0.526741
280 1 0.830058 0.56027 0.480978
350 1 0.999783 0.576662 0.411628
184 1 0.899727 0.7142 0.361518
351 1 0.941911 0.682479 0.484259
79 1 0.813848 0.527893 0.644697
345 1 0.949389 0.531681 0.575483
347 1 0.897684 0.596849 0.582454
349 1 0.932505 0.671342 0.563649
22 1 0.161752 0.762766 0.336956
180 1 0.00751427 0.789696 0.345229
234 1 0.0633822 0.977416 0.457689
236 1 0.024986 0.95618 0.383332
233 1 0.131566 0.934155 0.46735
147 1 0.088619 0.767405 0.536139
149 1 0.149485 0.780823 0.594075
383 1 0.0187824 0.973236 0.625197
145 1 0.0408589 0.830297 0.535062
381 1 0.082381 0.923034 0.654602
379 1 0.141556 0.914585 0.596695
20 1 0.244589 0.77881 0.343127
235 1 0.204305 0.976864 0.441991
237 1 0.213322 0.949778 0.366692
186 1 0.231264 0.811095 0.474767
272 1 0.334129 0.868535 0.365252
271 1 0.364922 0.946225 0.37818
144 1 0.260314 0.752432 0.633777
192 1 0.389524 0.75397 0.540026
187 1 0.309554 0.921505 0.512522
377 1 0.202118 0.959178 0.629899
189 1 0.369631 0.893071 0.561001
185 1 0.24113 0.873295 0.52752
204 1 0.498167 0.968166 0.487249
202 1 0.507971 0.925532 0.417639
201 1 0.587079 0.923024 0.386483
89 1 0.507235 0.815633 0.643878
206 1 0.514782 0.918063 0.550262
208 1 0.590312 0.9265 0.580384
191 1 0.40665 0.833597 0.514634
109 1 0.793858 0.93529 0.427402
205 1 0.682962 0.88251 0.482789
107 1 0.770861 0.997296 0.377941
112 1 0.79732 0.819559 0.37851
203 1 0.630097 0.862756 0.41796
246 1 0.767326 0.766199 0.50795
242 1 0.715604 0.784027 0.631657
207 1 0.638236 0.862382 0.550917
243 1 0.787452 0.901279 0.650606
111 1 0.843048 0.889863 0.374937
182 1 0.930066 0.789442 0.380534
248 1 0.846519 0.787853 0.510678
146 1 0.971779 0.809606 0.582922
148 1 0.975429 0.833421 0.663866
245 1 0.863766 0.89175 0.606694
247 1 0.851258 0.874882 0.530557
34 1 0.165264 0.574474 0.679934
12 1 0.103952 0.563737 0.870058
14 1 0.0930516 0.635069 0.836001
67 1 0.0791321 0.740493 0.93745
16 1 0.0110683 0.653878 0.83079
143 1 0.310883 0.702534 0.675452
141 1 0.271514 0.663639 0.743923
97 1 0.351253 0.528948 0.776167
99 1 0.316067 0.5512 0.851732
114 1 0.208264 0.722263 0.987454
113 1 0.2814 0.694546 0.951591
139 1 0.276283 0.703793 0.811731
95 1 0.546555 0.661894 0.708307
93 1 0.597247 0.716135 0.670662
98 1 0.432243 0.50609 0.784472
258 1 0.505258 0.581401 0.887631
260 1 0.433023 0.564046 0.920123
94 1 0.433967 0.694781 0.769032
96 1 0.510545 0.679241 0.782146
257 1 0.544778 0.63459 0.938775
289 1 0.510807 0.747013 0.97724
76 1 0.641292 0.53404 0.690504
200 1 0.786309 0.645841 0.739568
198 1 0.716931 0.683049 0.736627
74 1 0.675464 0.533954 0.767901
259 1 0.605303 0.592724 0.983652
153 1 0.738726 0.596014 0.944768
155 1 0.782795 0.619489 0.881973
196 1 0.70421 0.729015 0.808256
160 1 0.873012 0.719357 0.99809
13 1 0.944534 0.548018 0.757922
199 1 0.83975 0.696079 0.697971
15 1 0.975894 0.621266 0.748756
8 1 0.926782 0.547739 0.926958
6 1 0.97292 0.527242 0.992454
197 1 0.892716 0.721946 0.753274
159 1 0.88412 0.698017 0.924988
157 1 0.808263 0.69757 0.887172
150 1 0.0105089 0.769841 0.707875
152 1 0.0860173 0.785659 0.718018
65 1 0.0717986 0.805835 0.887944
311 1 0.144361 0.970074 0.786626
309 1 0.10889 0.942542 0.855278
307 1 0.16677 0.899321 0.901565
142 1 0.277443 0.828143 0.676063
423 1 0.337527 0.962592 0.706044
140 1 0.214324 0.856836 0.727858
137 1 0.219221 0.758981 0.833426
293 1 0.395702 0.766574 0.900659
138 1 0.239026 0.83925 0.808824
295 1 0.370987 0.841172 0.885312
296 1 0.355975 0.878285 0.962737
306 1 0.283248 0.973845 0.911214
305 1 0.214653 0.944693 0.948907
421 1 0.388024 0.968144 0.778803
417 1 0.512337 0.998189 0.736235
90 1 0.425381 0.788285 0.668944
92 1 0.428501 0.777977 0.751749
291 1 0.482093 0.756584 0.899414
337 1 0.56048 0.849031 0.755113
340 1 0.570907 0.883108 0.884619
419 1 0.46182 0.937078 0.760966
338 1 0.580961 0.820878 0.832898
294 1 0.42167 0.913492 0.998215
341 1 0.64968 0.93449 0.704097
339 1 0.628571 0.852174 0.709963
241 1 0.76748 0.828803 0.676663
194 1 0.73104 0.806722 0.805785
482 1 0.73303 0.991632 0.988287
343 1 0.701256 0.947401 0.766732
342 1 0.650959 0.913474 0.884292
344 1 0.663754 0.974045 0.833003
29 1 0.87985 0.96146 0.755577
27 1 0.958398 0.94727 0.777165
66 1 0.992205 0.808865 0.856992
193 1 0.811464 0.809473 0.835556
68 1 0.949348 0.869698 0.891139
70 1 0.91212 0.837035 0.960339
484 1 0.809384 0.984352 0.963468
486 1 0.811974 0.974051 0.879959
195 1 0.869138 0.802271 0.773758
ITEM: TIMESTEP
250
ITEM: NUMBER OF ATOMS
512
ITEM: BOX BOUNDS pp pp pp
1.8332206818000001e+00 2.6666779318200000e+01
1.8332206818000001e+00 2.6666779318200000e+01
1.8332206818000001e+00 2.6666779318200000e+01
ITEM: ATOMS id type xs ys zs
211 1 0.0460622 0.103642 0.140473
209 1 0.101274 0.0559593 0.176993
210 1 0.176766 0.105873 0.206789
503 1 0.14431 0.202361 0.0425617
215 1 0.0219772 0.213274 0.212774
212 1 0.166326 0.127172 0.286953
238 1 0.0621127 0.0288672 0.333462
239 1 0.202094 -0.00395737 0.330279
214 1 0.141488 0.211156 0.280202
216 1 0.0605489 0.210499 0.287898
267 1 0.413252 0.000953595 0.281576
501 1 0.185951 0.134215 0.0577482
389 1 0.323262 0.159506 0.151752
391 1 0.372733 0.123284 0.207725
132 1 0.381952 0.0237962 0.0153659
387 1 0.266891 0.21443 0.187047
497 1 0.323291 0.164048 0.0161916
269 1 0.350678 0.00469048 0.333879
130 1 0.421355 0.0170689 0.0843985
495 1 0.870334 0.368927 0.318339
298 1 0.54776 0.0622568 0.213739
87 1 0.705292 0.370925 0.00156734
176 1 0.576422 0.154876 0.0176303
175 1 0.521809 0.136839 0.0863536
173 1 0.448368 0.171895 0.0837039
392 1 0.45302 0.157964 0.210312
390 1 0.439902 0.197836 0.284578
299 1 0.652504 0.0745207 0.120432
297 1 0.627253 0.0941541 0.198322
464 1 0.757094 0.169309 0.12141
463 1 0.743937 0.186401 0.0435196
174 1 0.611803 0.229225 0.0285572
462 1 0.779407 0.238859 0.168199
409 1 0.683271 0.258161 0.300098
213 1 0.982888 0.147814 0.191916
441 1 0.842892 0.0513038 0.217423
442 1 0.853535 0.0735888 0.138328
443 1 0.915917 0.0366571 0.263374
460 1 0.85933 0.248524 0.166258
444 1 0.834328 0.00354038 0.0922607
59 1 0.96983 0.105033 0.0175402
504 1 0.165994 0.268998 0.0934718
254 1 0.0510374 0.362532 0.0717118
240 1 0.125773 0.0133242 0.286756
256 1 0.0658173 0.448188 0.0714932
255 1 0.14468 0.463982 0.0667219
489 1 0.987901 0.432435 0.189283
322 1 0.147865 0.346836 0.203897
321 1 0.122018 0.344209 0.286138
323 1 0.0612679 0.403161 0.29618
502 1 0.214184 0.327542 0.0441229
385 1 0.314659 0.285737 0.191638
500 1 0.294589 0.299433 0.0422496
386 1 0.346865 0.294097 0.270111
326 1 0.175014 0.474625 0.180825
396 1 0.323888 0.429583 0.0945911
398 1 0.404931 0.414428 0.116628
400 1 0.408853 0.419181 0.197015
324 1 0.211835 0.401288 0.183253
171 1 0.449347 0.25609 0.0904109
170 1 0.518757 0.329367 0.0166112
169 1 0.443517 0.299894 0.0195006
413 1 0.580288 0.242836 0.210308
415 1 0.550617 0.312938 0.170897
494 1 0.887751 0.498383 0.340399
399 1 0.443478 0.489499 0.22738
388 1 0.428566 0.285918 0.279736
416 1 0.529368 0.363975 0.237493
411 1 0.661699 0.241717 0.219751
285 1 0.66671 0.39488 0.145323
283 1 0.751774 0.373829 0.143451
287 1 0.662119 0.474785 0.120073
281 1 0.787525 0.392328 0.216532
410 1 0.701406 0.339819 0.307581
414 1 0.597989 0.410089 0.266832
457 1 0.911628 0.256847 0.034071
458 1 0.881699 0.296631 0.105395
491 1 0.931241 0.364868 0.203526
1 1 0.866134 0.412354 0.0185214
282 1 0.843265 0.466436 0.212023
2 1 0.922168 0.454711 0.0726017
493 1 0.929651 0.325309 0.27669
450 1 0.809241 0.194443 0.330439
499 1 0.25213 0.124262 0.00136877
371 1 0.0178794 0.158631 0.404192
223 1 0.163199 0.153603 0.457661
224 1 0.163517 0.234465 0.473119
384 1 0.0641494 0.0864103 0.633339
382 1 0.122768 0.120879 0.583526
380 1 0.20059 0.0971505 0.609764
378 1 0.216702 0.0224366 0.583769
217 1 0.319585 0.144666 0.393698
221 1 0.227444 0.115421 0.485066
219 1 0.257002 0.093342 0.415457
424 1 0.36167 0.0545195 0.624743
51 1 0.317608 0.188507 0.636459
422 1 0.428226 0.0352989 0.581469
49 1 0.262753 0.23763 0.611353
228 1 0.430521 0.185943 0.470548
226 1 0.431126 0.103636 0.452636
225 1 0.453905 0.080631 0.375615
229 1 0.560576 0.154518 0.332625
227 1 0.53416 0.0806182 0.361473
230 1 0.5061 0.207949 0.487891
232 1 0.541231 0.258029 0.427074
420 1 0.485142 0.0750628 0.629624
418 1 0.535409 0.0113004 0.650176
53 1 0.401611 0.211147 0.611588
451 1 0.721946 0.157042 0.416484
449 1 0.782778 0.126777 0.371154
231 1 0.592196 0.201254 0.401108
314 1 0.622908 0.165237 0.583571
316 1 0.592359 0.0978816 0.550772
383 1 0.0439521 0.0161875 0.595522
319 1 0.754591 0.0384016 0.61017
438 1 0.00315137 0.401414 0.568322
453 1 0.744893 0.164395 0.496342
440 1 0.972541 0.366154 0.498488
318 1 0.654313 0.0559264 0.514824
370 1 0.94117 0.0532503 0.399642
369 1 0.954025 0.129314 0.361292
80 1 0.774784 0.494302 0.624257
452 1 0.867578 0.240651 0.375281
373 1 0.000136751 0.208612 0.477981
372 1 0.876897 0.055399 0.456826
375 1 0.997226 0.16826 0.547875
374 1 0.922093 0.0618605 0.521841
376 1 0.91657 0.13912 0.559702
222 1 0.164973 0.273428 0.391058
435 1 0.146805 0.406673 0.465083
437 1 0.0823691 0.37754 0.423211
439 1 0.0160408 0.416497 0.436592
325 1 0.0868682 0.472318 0.334545
433 1 0.168222 0.349849 0.528385
436 1 0.0549265 0.344472 0.603738
434 1 0.132978 0.376631 0.596785
220 1 0.239641 0.271155 0.376454
121 1 0.285931 0.33678 0.464121
122 1 0.285937 0.414798 0.440041
124 1 0.328813 0.419703 0.362966
126 1 0.389358 0.467249 0.379252
50 1 0.235525 0.299492 0.657489
52 1 0.287933 0.362738 0.629227
496 1 0.901015 0.421944 0.371828
37 1 0.245191 0.495633 0.562768
43 1 0.421754 0.452791 0.522497
123 1 0.361688 0.330773 0.507596
125 1 0.416877 0.314635 0.44417
128 1 0.449412 0.418432 0.364025
127 1 0.470246 0.379823 0.430775
56 1 0.423116 0.333072 0.644945
55 1 0.437903 0.253977 0.673315
161 1 0.560273 0.276565 0.618941
456 1 0.83375 0.266434 0.507201
162 1 0.565971 0.328183 0.554688
47 1 0.484696 0.468029 0.63934
45 1 0.499521 0.463977 0.558015
412 1 0.624331 0.37048 0.333102
164 1 0.638891 0.316292 0.512073
362 1 0.871536 0.286427 0.633138
277 1 0.738707 0.482612 0.405004
454 1 0.835351 0.304134 0.429581
168 1 0.726891 0.363655 0.606392
455 1 0.756717 0.241824 0.513964
166 1 0.680045 0.381784 0.542842
31 1 0.884279 0.0425591 0.662427
218 1 0.285292 0.200166 0.342319
355 1 0.102278 0.186715 0.7358
353 1 0.0947111 0.252811 0.695833
26 1 0.023887 0.0868068 0.793179
62 1 0.125395 0.134646 0.900257
64 1 0.105676 0.055756 0.896638
60 1 0.0613666 0.188398 0.878317
163 1 0.566006 0.334194 0.683011
312 1 0.206941 0.0223113 0.776281
357 1 0.186863 0.179105 0.744204
308 1 0.285144 0.0423349 0.888806
134 1 0.411856 0.0854567 0.968155
359 1 0.228746 0.210519 0.805197
473 1 0.361649 0.183447 0.869257
474 1 0.363167 0.17475 0.780694
310 1 0.287497 0.0165058 0.809982
25 1 -0.00265721 0.0129118 0.796712
478 1 0.488579 0.154513 0.738098
476 1 0.411108 0.111577 0.758946
135 1 0.533768 0.0418332 0.923902
480 1 0.543369 0.142622 0.805756
477 1 0.485596 0.192945 0.908264
136 1 0.450804 0.0438534 0.904384
479 1 0.540159 0.209546 0.847744
475 1 0.418839 0.236319 0.888477
459 1 0.854442 0.243235 0.98152
317 1 0.71441 0.0584668 0.68073
481 1 0.713813 0.0706893 0.990739
483 1 0.670768 0.120132 0.936839
485 1 0.723068 0.15078 0.885195
487 1 0.736555 0.0917976 0.824496
30 1 0.922871 0.161534 0.729474
32 1 0.857292 0.107929 0.712311
63 1 0.08936 0.0485296 0.980854
58 1 0.0154461 0.208131 0.938933
28 1 0.954277 0.139241 0.801834
488 1 0.81519 0.0605581 0.844334
57 1 0.954211 0.156063 0.955151
461 1 0.819474 0.170684 1.00412
365 1 0.80159 0.242071 0.80374
315 1 0.709024 0.136749 0.69091
250 1 0.0767762 0.32961 0.932945
354 1 0.0740293 0.309888 0.747654
356 1 0.136065 0.364016 0.778522
358 1 0.184196 0.322372 0.832577
249 1 0.090501 0.415584 0.907291
9 1 0.0287678 0.480689 0.804776
251 1 0.164144 0.428095 0.93065
5 1 0.862668 0.452035 0.896468
253 1 0.154454 0.487906 0.986721
33 1 0.201417 0.484749 0.696896
360 1 0.249529 0.292243 0.793459
104 1 0.354125 0.37263 0.871735
498 1 0.313643 0.244201 0.984411
101 1 0.265005 0.473482 0.852814
103 1 0.300918 0.442277 0.915704
82 1 0.601253 0.347354 0.844951
102 1 0.427606 0.400321 0.853255
100 1 0.43808 0.423417 0.776387
84 1 0.59656 0.426597 0.8684
86 1 0.595958 0.427759 0.948595
75 1 0.783997 0.466703 0.806201
165 1 0.645358 0.332119 0.711378
361 1 0.803232 0.248138 0.668988
81 1 0.679338 0.324061 0.830593
83 1 0.712235 0.281228 0.895905
85 1 0.759811 0.34062 0.94269
363 1 0.760591 0.271252 0.733977
3 1 0.892969 0.391147 0.944825
88 1 0.672474 0.438268 0.973187
73 1 0.698613 0.479128 0.801546
364 1 0.940832 0.272608 0.678746
172 1 0.576368 0.284434 0.978099
77 1 0.810684 0.42402 0.743995
366 1 0.940387 0.330714 0.743862
368 1 0.931115 0.286467 0.809496
367 1 0.854519 0.296424 0.839437
252 1 0.0226183 0.33611 0.996822
61 1 0.00453046 0.0306999 0.989058
313 1 0.631847 0.164715 0.666736
79 1 0.833529 0.484263 0.690165
54 1 0.356835 0.370255 0.676814
167 1 0.692571 0.397032 0.676254
402 1 0.0489752 0.59657 0.0888534
403 1 0.179336 0.617832 0.0695574
407 1 0.176842 0.648077 0.200579
405 1 0.20726 0.669657 0.129025
401 1 0.10459 0.637794 0.0445396
408 1 0.104923 0.692689 0.218428
406 1 0.0379019 0.635025 0.212139
404 1 0.00620692 0.650506 0.135244
328 1 0.189037 0.509074 0.253253
327 1 0.111987 0.525471 0.272603
394 1 0.304317 0.512564 0.0786525
393 1 0.295895 0.538426 0.152919
397 1 0.380063 0.534459 0.248477
395 1 0.36161 0.581819 0.183424
119 1 0.299093 0.757391 0.145023
117 1 0.351768 0.721448 0.0983332
18 1 0.283421 0.735888 0.286385
17 1 0.315798 0.674399 0.331122
115 1 0.305553 0.661393 0.0530976
445 1 0.934456 0.960579 0.252501
261 1 0.594249 0.582071 0.0363221
448 1 0.945008 0.918325 0.123857
334 1 0.521572 0.660314 0.12962
332 1 0.475221 0.719425 0.165611
336 1 0.52456 0.600259 0.186479
335 1 0.586943 0.602569 0.242719
331 1 0.598546 0.722326 0.301233
333 1 0.574605 0.640547 0.310416
154 1 0.806521 0.560132 0.0253957
288 1 0.66958 0.529337 0.182188
286 1 0.738413 0.564637 0.164772
284 1 0.804683 0.535207 0.23039
508 1 0.635449 0.738562 0.0670671
512 1 0.673399 0.700135 0.193312
511 1 0.753355 0.718888 0.196642
510 1 0.654307 0.675346 0.115211
156 1 0.808855 0.624793 0.0744062
273 1 0.709447 0.584102 0.317244
506 1 0.714407 0.749714 0.0161799
4 1 0.926501 0.526943 0.0442759
158 1 0.873025 0.683642 0.054555
181 1 0.889691 0.678598 0.240266
183 1 0.858347 0.719777 0.305104
492 1 0.954507 0.520792 0.29899
294 1 0.404095 0.859589 0.0310705
490 1 0.955661 0.496691 0.216594
431 1 0.156174 0.876581 0.242852
429 1 0.119997 0.840849 0.181389
427 1 0.0918638 0.91156 0.144987
425 1 0.128573 0.925208 0.0764053
426 1 0.189848 0.988007 0.0837695
177 1 0.986509 0.760863 0.195724
178 1 0.989975 0.833314 0.237154
19 1 0.262366 0.612282 0.311515
263 1 0.548248 0.513844 0.0537289
118 1 0.209068 0.823203 0.0600166
432 1 0.240396 0.881277 0.230737
430 1 0.254715 0.961228 0.202095
120 1 0.282433 0.827531 0.104957
428 1 0.264191 0.978945 0.117427
265 1 0.386345 0.953542 0.216961
129 1 0.473064 0.953712 0.0819882
268 1 0.390298 0.829704 0.267014
264 1 0.470464 0.52996 0.0480731
72 1 0.996418 0.868386 0.0314043
330 1 0.53468 0.777755 0.19641
266 1 0.427712 0.878735 0.217677
302 1 0.542282 0.926778 0.212934
292 1 0.461195 0.81367 0.0675002
290 1 0.523545 0.793771 0.0114095
300 1 0.550693 0.991118 0.256462
329 1 0.529943 0.758673 0.274255
507 1 0.808694 0.78392 0.0974294
110 1 0.758308 0.812488 0.321661
301 1 0.708534 0.991118 0.12265
505 1 0.755705 0.813072 0.0361179
304 1 0.620794 0.88921 0.176655
303 1 0.655541 0.929176 0.115746
509 1 0.768463 0.799597 0.16565
108 1 0.684652 0.849087 0.302742
105 1 0.709554 0.983118 0.293856
106 1 0.703281 0.910235 0.254758
71 1 0.0124934 0.789352 0.0402104
179 1 0.90576 0.738184 0.18301
446 1 0.912182 0.975795 0.0706613
447 1 0.988223 0.959764 0.185908
131 1 0.556818 0.987518 0.0413912
180 1 0.00965275 0.818196 0.314333
348 1 0.0194308 0.564016 0.447616
23 1 0.139334 0.61422 0.375242
24 1 0.142175 0.694843 0.396301
352 1 -0.00420195 0.682966 0.457105
279 1 0.775848 0.50312 0.473193
40 1 0.145463 0.604342 0.537483
38 1 0.14508 0.632132 0.615415
346 1 0.968596 0.513067 0.504222
190 1 0.319354 0.726564 0.455645
21 1 0.220907 0.588331 0.381011
146 1 0.950152 0.797417 0.643718
247 1 0.839354 0.891502 0.562333
39 1 0.222911 0.572286 0.542131
41 1 0.408076 0.529894 0.493556
42 1 0.363495 0.570973 0.544393
188 1 0.248124 0.720839 0.480032
468 1 0.566857 0.595007 0.503734
466 1 0.514413 0.598649 0.436013
465 1 0.449161 0.643287 0.449268
467 1 0.466813 0.721732 0.410455
469 1 0.51093 0.789479 0.446018
48 1 0.497663 0.547462 0.665666
46 1 0.431875 0.603491 0.66245
44 1 0.422787 0.631732 0.583678
91 1 0.534382 0.733586 0.621579
470 1 0.627822 0.654604 0.484571
275 1 0.673523 0.53423 0.376648
471 1 0.592781 0.772088 0.446965
278 1 0.794269 0.636112 0.465078
274 1 0.703108 0.655459 0.361402
276 1 0.776322 0.675905 0.394678
248 1 0.852407 0.807568 0.556086
78 1 0.721206 0.555048 0.634164
244 1 0.747924 0.743707 0.587657
472 1 0.623077 0.730049 0.519081
280 1 0.827029 0.567354 0.443611
350 1 0.980039 0.622089 0.40759
184 1 0.913878 0.730686 0.365237
351 1 0.929443 0.705632 0.499172
182 1 0.940031 0.810245 0.357559
345 1 0.962539 0.544629 0.580456
347 1 0.901789 0.604164 0.576886
349 1 0.944769 0.673424 0.578769
22 1 0.154827 0.752112 0.337633
35 1 0.265373 0.507585 0.647711
234 1 0.0312599 0.947434 0.41991
236 1 0.016078 0.961402 0.343971
233 1 0.0909549 0.888628 0.432458
147 1 0.0485877 0.749841 0.557745