ITEM: TIMESTEP
0
ITEM: NUMBER OF ATOMS
512
ITEM: BOX BOUNDS pp pp pp
1.8332206818000001e+00 2.6666779318200000e+01
1.8332206818000001e+00 2.6666779318200000e+01
1.8332206818000001e+00 2.6666779318200000e+01
ITEM: ATOMS id type xs ys zs
211 1 0.0515791 0.138215 0.122897
209 1 0.102706 0.0798829 0.159612
210 1 0.177372 0.101533 0.176422
503 1 0.153212 0.2195 0.0483713
215 1 0.0119291 0.229714 0.206289
212 1 0.173391 0.139845 0.253485
238 1 0.0479449 0.0132984 0.329013
239 1 0.187971 0.00814886 0.311837
214 1 0.148568 0.212682 0.24484
216 1 0.0634912 0.22349 0.269547
63 1 0.0784428 0.0582219 0.00929424
501 1 0.208964 0.156247 0.0488961
389 1 0.338801 0.166955 0.165737
391 1 0.375514 0.126537 0.233249
132 1 0.374607 0.0278308 0.0374761
387 1 0.282604 0.217844 0.193456
497 1 0.326065 0.195499 0.00377855
218 1 0.282057 0.19084 0.331425
130 1 0.434509 0.0448899 0.0901535
129 1 0.502019 0.00255979 0.0891157
298 1 0.569149 0.0384556 0.215853
131 1 0.563346 0.0387902 0.0357919
176 1 0.583207 0.16217 0.0589439
175 1 0.525143 0.160186 0.120372
173 1 0.45937 0.182781 0.0778354
392 1 0.452111 0.163047 0.246431
390 1 0.45377 0.212132 0.313044
299 1 0.677758 0.0545242 0.133792
297 1 0.645065 0.0709898 0.210818
464 1 0.766503 0.172774 0.0926379
463 1 0.755137 0.232455 0.0386779
174 1 0.620731 0.240411 0.0745043
462 1 0.789992 0.209621 0.169637
409 1 0.666492 0.242776 0.286464
213 1 0.994117 0.15115 0.176749
441 1 0.808467 0.0575507 0.19293
442 1 0.84849 0.0740343 0.124071
443 1 0.861791 0.0610224 0.257555
460 1 0.871842 0.21605 0.163376
444 1 0.846818 0.00944638 0.0814004
59 1 0.949351 0.113914 0.015232
504 1 0.176892 0.275755 0.102345
254 1 0.0469996 0.367575 0.0772733
252 1 0.0221251 0.36884 0.00225573
256 1 0.0772983 0.445936 0.0872076
255 1 0.161374 0.453827 0.0758171
489 1 0.0179744 0.432318 0.211668
322 1 0.17997 0.35448 0.236083
321 1 0.149838 0.344782 0.313985
323 1 0.0775939 0.385839 0.324321
502 1 0.210511 0.335813 0.0521543
385 1 0.317294 0.297678 0.206104
500 1 0.288921 0.31653 0.0497668
386 1 0.357571 0.30682 0.281555
326 1 0.217841 0.484141 0.215084
396 1 0.297261 0.460208 0.10073
398 1 0.36975 0.417933 0.11824
400 1 0.389494 0.432978 0.198513
324 1 0.240848 0.408293 0.246051
171 1 0.428666 0.255321 0.101799
170 1 0.529345 0.341387 0.0591203
169 1 0.451598 0.309164 0.0393766
413 1 0.557618 0.281104 0.217691
415 1 0.545559 0.363265 0.204526
172 1 0.584008 0.289567 0.0202877
263 1 0.541485 0.485408 0.0491669
388 1 0.434378 0.286173 0.275395
416 1 0.541519 0.391586 0.27889
411 1 0.642698 0.266197 0.211645
285 1 0.66464 0.37869 0.135172
283 1 0.741148 0.351543 0.125353
287 1 0.650628 0.451512 0.1005
281 1 0.79087 0.374766 0.184992
410 1 0.706417 0.302912 0.330897
414 1 0.619964 0.410131 0.311436
457 1 0.92808 0.25728 0.0536701
458 1 0.887929 0.2865 0.125506
491 1 0.976284 0.365462 0.216678
1 1 0.832142 0.419507 0.0320673
282 1 0.813837 0.446504 0.156951
2 1 0.907776 0.433612 0.0548573
490 1 0.961543 0.49001 0.187891
493 1 0.953082 0.352446 0.300047
495 1 0.886739 0.399045 0.311547
371 1 0.0081972 0.146572 0.426651
223 1 0.155718 0.14952 0.467349
224 1 0.177341 0.230287 0.474292
384 1 0.0269146 0.0513245 0.644339
382 1 0.0807216 0.0846028 0.585709
380 1 0.157949 0.0862684 0.615286
378 1 0.197827 0.0235658 0.581935
217 1 0.316157 0.13555 0.384219
221 1 0.223781 0.105881 0.474229
219 1 0.254846 0.0812207 0.397688
424 1 0.328236 0.0326496 0.66124
51 1 0.332324 0.182174 0.620975
422 1 0.384273 0.035704 0.595098
49 1 0.270856 0.235185 0.596646
228 1 0.43708 0.168357 0.46855
226 1 0.447896 0.083517 0.458048
225 1 0.459625 0.080446 0.372295
229 1 0.5813 0.135573 0.344446
227 1 0.541971 0.0696681 0.373555
230 1 0.5056 0.195493 0.492055
232 1 0.55634 0.238165 0.430504
420 1 0.453282 0.0669058 0.62567
418 1 0.511202 0.01409 0.652053
53 1 0.407908 0.213718 0.606904
451 1 0.7349 0.152858 0.454641
449 1 0.794163 0.12553 0.401615
231 1 0.611788 0.181125 0.403732
314 1 0.611061 0.160293 0.55105
316 1 0.603508 0.0788641 0.529102
313 1 0.608895 0.146792 0.633489
319 1 0.758309 0.0617693 0.60887
315 1 0.685325 0.165756 0.66122
453 1 0.767264 0.179456 0.528301
320 1 0.706055 0.00626363 0.577975
318 1 0.671583 0.0406473 0.506295
370 1 0.921135 0.0469556 0.439682
369 1 0.94582 0.107914 0.382624
450 1 0.806992 0.191426 0.352046
452 1 0.872281 0.244195 0.387268
373 1 0.981071 0.209956 0.466996
372 1 0.86568 0.0703517 0.498601
375 1 0.990266 0.200559 0.549336
374 1 0.902457 0.09057 0.568324
376 1 0.910401 0.173405 0.576805
222 1 0.183624 0.25892 0.399241
435 1 0.131588 0.392437 0.492841
437 1 0.0820063 0.339751 0.452204
439 1 0.000589943 0.367084 0.458704
325 1 0.0912924 0.458319 0.355465
433 1 0.149478 0.369809 0.572629
436 1 0.0346602 0.374946 0.642492
434 1 0.10611 0.419473 0.619341
220 1 0.26351 0.262371 0.367391
121 1 0.33066 0.328881 0.475525
122 1 0.291451 0.399409 0.460804
124 1 0.293124 0.424736 0.38196
126 1 0.353886 0.48512 0.375817
50 1 0.237114 0.284885 0.647466
52 1 0.267187 0.35952 0.623193
54 1 0.337274 0.376701 0.663485
37 1 0.227475 0.489033 0.55397
43 1 0.379185 0.471782 0.556381
123 1 0.412467 0.338543 0.488346
125 1 0.443546 0.328265 0.407993
128 1 0.417433 0.439677 0.334606
127 1 0.470352 0.399572 0.388205
56 1 0.409675 0.348253 0.623966
55 1 0.427419 0.271673 0.658735
161 1 0.551248 0.307532 0.57218
163 1 0.561055 0.329175 0.652185
162 1 0.550391 0.373064 0.519741
47 1 0.482398 0.477305 0.638511
45 1 0.460147 0.459475 0.56246
412 1 0.652822 0.357878 0.364396
164 1 0.624569 0.380319 0.484427
279 1 0.781194 0.491204 0.465788
277 1 0.778019 0.476937 0.378761
167 1 0.684112 0.382435 0.661368
168 1 0.720705 0.385161 0.587428
455 1 0.763535 0.265785 0.522541
166 1 0.671357 0.430456 0.536146
454 1 0.835166 0.305888 0.423267
496 1 0.909857 0.477402 0.350992
362 1 0.836507 0.317115 0.653875
456 1 0.839487 0.293633 0.504807
440 1 0.969782 0.340443 0.533171
438 1 0.976815 0.396736 0.59114
346 1 0.949233 0.497164 0.499754
355 1 0.122033 0.169466 0.719359
353 1 0.0994578 0.244743 0.681981
26 1 0.0271088 0.0627767 0.798772
62 1 0.118113 0.166938 0.934573
64 1 0.11671 0.0832416 0.935167
60 1 0.0568998 0.197567 0.891755
61 1 0.00132819 0.0495551 0.998321
312 1 0.165151 0.0508355 0.793879
357 1 0.201045 0.169806 0.738614
308 1 0.270759 0.0489454 0.878802
134 1 0.380951 0.078176 0.968584
359 1 0.225091 0.181076 0.819402
473 1 0.359962 0.173803 0.849102
474 1 0.376 0.156529 0.767909
310 1 0.248807 0.0445768 0.802067
499 1 0.252188 0.166515 0.976338
478 1 0.51137 0.142796 0.744468
476 1 0.440433 0.10568 0.765001
135 1 0.506573 0.0587524 0.920528
480 1 0.557539 0.152147 0.811659
477 1 0.476001 0.205559 0.918544
136 1 0.42809 0.0356916 0.910634
479 1 0.548366 0.2107 0.870029
475 1 0.406199 0.235616 0.877827
133 1 0.548838 0.00194225 0.963027
317 1 0.729428 0.0965356 0.683011
481 1 0.713257 0.0684018 0.996786
483 1 0.671524 0.0934482 0.924452
485 1 0.723581 0.144001 0.885507
487 1 0.761456 0.0934584 0.821956
30 1 0.945323 0.130974 0.721757
32 1 0.874464 0.0919657 0.711097
31 1 0.881522 0.012372 0.689243
58 1 0.986195 0.215837 0.929034
28 1 0.975342 0.128557 0.79877
488 1 0.823379 0.0546537 0.851713
57 1 0.934405 0.14969 0.938102
461 1 0.814405 0.215341 0.984079
365 1 0.805293 0.22274 0.794946
25 1 0.97747 0.00172844 0.83934
250 1 0.0757226 0.329536 0.950648
354 1 0.085132 0.295189 0.744481
356 1 0.151305 0.329717 0.765859
358 1 0.187759 0.307866 0.838339
249 1 0.0973334 0.395971 0.909759
9 1 0.0386985 0.460715 0.801792
251 1 0.175021 0.420297 0.937103
10 1 0.114767 0.496819 0.816673
253 1 0.160764 0.481955 0.993732
33 1 0.200105 0.497649 0.675155
360 1 0.255258 0.258635 0.834856
104 1 0.352598 0.376689 0.890381
498 1 0.320901 0.274897 0.983118
101 1 0.274307 0.485752 0.882197
103 1 0.324211 0.441733 0.930928
82 1 0.571354 0.342152 0.843575
102 1 0.433769 0.388046 0.869375
100 1 0.421907 0.423247 0.796028
84 1 0.587411 0.425861 0.844904
86 1 0.599902 0.460608 0.924377
262 1 0.439846 0.495197 0.963895
165 1 0.642059 0.316549 0.669556
361 1 0.793697 0.251594 0.67615
81 1 0.648222 0.31045 0.844296
83 1 0.669042 0.275791 0.914098
85 1 0.730726 0.328213 0.9413
363 1 0.755151 0.26493 0.749215
87 1 0.702034 0.389163 0.985538
88 1 0.684589 0.458841 0.93976
73 1 0.725915 0.472086 0.778402
364 1 0.92006 0.303251 0.680182
11 1 0.999736 0.493529 0.732053
77 1 0.832606 0.462731 0.695838
366 1 0.935537 0.345492 0.750287
368 1 0.928051 0.289146 0.817694
367 1 0.850248 0.28145 0.839334
3 1 0.838469 0.389914 0.951229
75 1 0.804146 0.494508 0.76904
5 1 0.825292 0.454176 0.901465
7 1 0.903108 0.482544 0.883794
459 1 0.876525 0.273826 0.988914
402 1 0.0407133 0.593812 0.0933357
403 1 0.168627 0.607911 0.0711752
407 1 0.188925 0.651749 0.195292
405 1 0.193441 0.677073 0.117893
401 1 0.0974714 0.619621 0.033267
408 1 0.11541 0.676799 0.230254
406 1 0.0541018 0.627834 0.216109
404 1 0.0129684 0.653986 0.144226
328 1 0.183653 0.526352 0.277924
327 1 0.100503 0.505209 0.287348
394 1 0.320359 0.53559 0.072384
393 1 0.305676 0.584718 0.138432
397 1 0.383957 0.559428 0.246535
395 1 0.373406 0.611778 0.185682
119 1 0.349443 0.716825 0.122885
117 1 0.382991 0.690535 0.0520168
18 1 0.286064 0.72502 0.283714
17 1 0.334306 0.67847 0.333273
115 1 0.322459 0.648693 0.0037387
399 1 0.438156 0.503133 0.212196
261 1 0.572888 0.561409 0.0550213
264 1 0.455884 0.506888 0.0408334
334 1 0.522328 0.646133 0.142342
332 1 0.478109 0.716901 0.16344
336 1 0.52203 0.5919 0.204978
335 1 0.586899 0.610045 0.252443
331 1 0.590429 0.728506 0.3122
333 1 0.561051 0.650867 0.323069
154 1 0.786015 0.561783 0.00702433
288 1 0.651059 0.503009 0.160484
286 1 0.72702 0.543755 0.149568
284 1 0.781316 0.509192 0.200434
508 1 0.653156 0.707641 0.0328015
512 1 0.670553 0.718365 0.165423
511 1 0.754397 0.73918 0.181023
510 1 0.677801 0.668108 0.103205
156 1 0.79981 0.625461 0.0587751
273 1 0.725897 0.591675 0.315037
506 1 0.714517 0.749841 0.00254458
4 1 0.92205 0.512323 0.0542894
158 1 0.877994 0.648297 0.0478611
181 1 0.903186 0.689658 0.228181
183 1 0.853438 0.70463 0.296066
492 1 0.950773 0.544953 0.246388
494 1 0.881425 0.527633 0.297528
69 1 0.0771799 0.77263 0.013198
431 1 0.190852 0.878233 0.239814
429 1 0.132537 0.847601 0.188678
427 1 0.0875457 0.905242 0.14362
425 1 0.132409 0.913899 0.0761253
426 1 0.167751 0.991946 0.0772439
177 1 0.00283035 0.783353 0.210605
178 1 0.00806672 0.836484 0.276321
240 1 0.119406 0.981361 0.284651
116 1 0.228542 0.802171 0.0139638
118 1 0.240496 0.795306 0.0938582
432 1 0.25359 0.910113 0.199446
430 1 0.256779 0.989242 0.175018
120 1 0.322268 0.793382 0.113606
428 1 0.245087 0.987394 0.0926415
265 1 0.388711 0.944964 0.192731
269 1 0.339378 0.99244 0.312669
268 1 0.377106 0.811348 0.236457
270 1 0.380986 0.811898 0.324685
267 1 0.405037 0.998249 0.26706
330 1 0.526183 0.778042 0.194773
266 1 0.424589 0.87121 0.205596
302 1 0.550367 0.91518 0.17977
292 1 0.459997 0.850343 0.0555079
290 1 0.524653 0.821603 0.0136781
300 1 0.565564 0.964407 0.249176
329 1 0.531019 0.777063 0.276952
507 1 0.781532 0.833767 0.087367
110 1 0.765744 0.807899 0.30365
301 1 0.715288 0.980261 0.133375
505 1 0.717865 0.830291 0.0395658
304 1 0.629496 0.882431 0.161008
303 1 0.661697 0.929014 0.0992154
509 1 0.760442 0.823252 0.166221
108 1 0.705158 0.856691 0.28064
105 1 0.706578 0.984612 0.328038
106 1 0.729733 0.937924 0.262994
71 1 0.999664 0.780805 0.0396977
179 1 0.924678 0.762399 0.191834
446 1 0.920196 0.956508 0.0897658
447 1 0.938885 0.954927 0.229695
72 1 0.964217 0.852582 0.020857
448 1 0.90655 0.916478 0.157949
445 1 0.87425 0.978587 0.271491
348 1 0.0192354 0.51414 0.464519
23 1 0.153255 0.6329 0.369095
24 1 0.148725 0.710379 0.399479
352 1 0.0156392 0.654145 0.447935
36 1 0.0948723 0.57914 0.638446
40 1 0.133438 0.564341 0.509501
38 1 0.112792 0.623024 0.560907
151 1 0.131251 0.742578 0.664546
190 1 0.336122 0.72997 0.480414
21 1 0.230219 0.617049 0.398948
19 1 0.29421 0.598655 0.351702
35 1 0.266934 0.508017 0.627326
39 1 0.215536 0.552669 0.504264
41 1 0.371171 0.539786 0.510219
42 1 0.346428 0.603757 0.555675
188 1 0.251617 0.742515 0.509566
468 1 0.535596 0.558683 0.487084
466 1 0.498831 0.572222 0.418357
465 1 0.450176 0.64096 0.435249
467 1 0.490477 0.707601 0.416716
469 1 0.536125 0.73606 0.481525
48 1 0.502467 0.559044 0.634728
46 1 0.436333 0.602751 0.657901
44 1 0.412585 0.645055 0.595866
91 1 0.548558 0.749983 0.611882
470 1 0.619198 0.589311 0.483904
275 1 0.710753 0.509788 0.338612
471 1 0.613919 0.715946 0.472426
278 1 0.775377 0.623566 0.487669
274 1 0.699375 0.642878 0.370904
276 1 0.765755 0.668356 0.41595
80 1 0.743245 0.528049 0.603403
78 1 0.693284 0.581201 0.639612
244 1 0.752071 0.730281 0.579807
472 1 0.623948 0.65725 0.526741
280 1 0.830058 0.56027 0.480978
350 1 0.999783 0.576662 0.411628
184 1 0.899727 0.7142 0.361518
351 1 0.941911 0.682479 0.484259
79 1 0.813848 0.527893 0.644697
345 1 0.949389 0.531681 0.575483
347 1 0.897684 0.596849 0.582454
349 1 0.932505 0.671342 0.563649
22 1 0.161752 0.762766 0.336956
180 1 0.00751427 0.789696 0.345229
234 1 0.0633822 0.977416 0.457689
236 1 0.024986 0.95618 0.383332
233 1 0.131566 0.934155 0.46735
147 1 0.088619 0.767405 0.536139
149 1 0.149485 0.780823 0.594075
383 1 0.0187824 0.973236 0.625197
145 1 0.0408589 0.830297 0.535062
381 1 0.082381 0.923034 0.654602
379 1 0.141556 0.914585 0.596695
20 1 0.244589 0.77881 0.343127
235 1 0.204305 0.976864 0.441991
237 1 0.213322 0.949778 0.366692
186 1 0.231264 0.811095 0.474767
272 1 0.334129 0.868535 0.365252
271 1 0.364922 0.946225 0.37818
144 1 0.260314 0.752432 0.633777
192 1 0.389524 0.75397 0.540026
187 1 0.309554 0.921505 0.512522
377 1 0.202118 0.959178 0.629899
189 1 0.369631 0.893071 0.561001
185 1 0.24113 0.873295 0.52752
204 1 0.498167 0.968166 0.487249
202 1 0.507971 0.925532 0.417639
201 1 0.587079 0.923024 0.386483
89 1 0.507235 0.815633 0.643878
206 1 0.514782 0.918063 0.550262
208 1 0.590312 0.9265 0.580384
191 1 0.40665 0.833597 0.514634
109 1 0.793858 0.93529 0.427402
205 1 0.682962 0.88251 0.482789
107 1 0.770861 0.997296 0.377941
112 1 0.79732 0.819559 0.37851
203 1 0.630097 0.862756 0.41796
246 1 0.767326 0.766199 0.50795
242 1 0.715604 0.784027 0.631657
207 1 0.638236 0.862382 0.550917
243 1 0.787452 0.901279 0.650606
111 1 0.843048 0.889863 0.374937
182 1 0.930066 0.789442 0.380534
248 1 0.846519 0.787853 0.510678
146 1 0.971779 0.809606 0.582922
148 1 0.975429 0.833421 0.663866
245 1 0.863766 0.89175 0.606694
247 1 0.851258 0.874882 0.530557
34 1 0.165264 0.574474 0.679934
12 1 0.103952 0.563737 0.870058
14 1 0.0930516 0.635069 0.836001
67 1 0.0791321 0.740493 0.93745
16 1 0.0110683 0.653878 0.83079
143 1 0.310883 0.702534 0.675452
141 1 0.271514 0.663639 0.743923
97 1 0.351253 0.528948 0.776167
99 1 0.316067 0.5512 0.851732
114 1 0.208264 0.722263 0.987454
113 1 0.2814 0.694546 0.951591
139 1 0.276283 0.703793 0.811731
95 1 0.546555 0.661894 0.708307
93 1 0.597247 0.716135 0.670662
98 1 0.432243 0.50609 0.784472
258 1 0.505258 0.581401 0.887631
260 1 0.433023 0.564046 0.920123
94 1 0.433967 0.694781 0.769032
96 1 0.510545 0.679241 0.782146
257 1 0.544778 0.63459 0.938775
289 1 0.510807 0.747013 0.97724
76 1 0.641292 0.53404 0.690504
200 1 0.786309 0.645841 0.739568
198 1 0.716931 0.683049 0.736627
74 1 0.675464 0.533954 0.767901
259 1 0.605303 0.592724 0.983652
153 1 0.738726 0.596014 0.944768
155 1 0.782795 0.619489 0.881973
196 1 0.70421 0.729015 0.808256
160 1 0.873012 0.719357 0.99809
13 1 0.944534 0.548018 0.757922
199 1 0.83975 0.696079 0.697971
15 1 0.975894 0.621266 0.748756
8 1 0.926782 0.547739 0.926958
6 1 0.97292 0.527242 0.992454
197 1 0.892716 0.721946 0.753274
159 1 0.88412 0.698017 0.924988
157 1 0.808263 0.69757 0.887172
150 1 0.0105089 0.769841 0.707875
152 1 0.0860173 0.785659 0.718018
65 1 0.0717986 0.805835 0.887944
311 1 0.144361 0.970074 0.786626
309 1 0.10889 0.942542 0.855278
307 1 0.16677 0.899321 0.901565
142 1 0.277443 0.828143 0.676063
423 1 0.337527 0.962592 0.706044
140 1 0.214324 0.856836 0.727858
137 1 0.219221 0.758981 0.833426
293 1 0.395702 0.766574 0.900659
138 1 0.239026 0.83925 0.808824
295 1 0.370987 0.841172 0.885312
296 1 0.355975 0.878285 0.962737
306 1 0.283248 0.973845 0.911214
305 1 0.214653 0.944693 0.948907
421 1 0.388024 0.968144 0.778803
417 1 0.512337 0.998189 0.736235
90 1 0.425381 0.788285 0.668944
92 1 0.428501 0.777977 0.751749
291 1 0.482093 0.756584 0.899414
337 1 0.56048 0.849031 0.755113
340 1 0.570907 0.883108 0.884619
419 1 0.46182 0.937078 0.760966
338 1 0.580961 0.820878 0.832898
294 1 0.42167 0.913492 0.998215
341 1 0.64968 0.93449 0.704097
339 1 0.628571 0.852174 0.709963
241 1 0.76748 0.828803 0.676663
194 1 0.73104 0.806722 0.805785
482 1 0.73303 0.991632 0.988287
343 1 0.701256 0.947401 0.766732
342 1 0.650959 0.913474 0.884292
344 1 0.663754 0.974045 0.833003
29 1 0.87985 0.96146 0.755577
27 1 0.958398 0.94727 0.777165
66 1 0.992205 0.808865 0.856992
193 1 0.811464 0.809473 0.835556
68 1 0.949348 0.869698 0.891139
70 1 0.91212 0.837035 0.960339
484 1 0.809384 0.984352 0.963468
486 1 0.811974 0.974051 0.879959
195 1 0.869138 0.802271 0.773758
ITEM: TIMESTEP
250
ITEM: NUMBER OF ATOMS
512
ITEM: BOX BOUNDS pp pp pp
1.8332206818000001e+00 2.6666779318200000e+01
1.8332206818000001e+00 2.6666779318200000e+01
1.8332206818000001e+00 2.6666779318200000e+01
ITEM: ATOMS id type xs ys zs
211 1 0.0418709 0.107194 0.138213
209 1 0.0987954 0.0595191 0.174247
210 1 0.174773 0.108508 0.201222
503 1 0.145121 0.203978 0.046892
215 1 0.0220291 0.217341 0.211664
212 1 0.165755 0.127964 0.281691
238 1 0.0599242 0.0266881 0.330611
269 1 0.35207 0.00184445 0.329597
214 1 0.141699 0.211182 0.277995
216 1 0.0610013 0.212853 0.28697
267 1 0.414447 -0.00244557 0.277994
501 1 0.188651 0.135396 0.0555076
389 1 0.324485 0.162088 0.152347
391 1 0.371872 0.125511 0.210998
132 1 0.378894 0.0267905 0.0197961
387 1 0.270718 0.217235 0.184912
497 1 0.323833 0.170255 0.0156929
240 1 0.120138 0.00803204 0.282056
130 1 0.422176 0.0266912 0.0854382
495 1 0.874097 0.376593 0.321602
298 1 0.549056 0.0592605 0.212416
490 1 0.955694 0.499017 0.211555
176 1 0.580824 0.159496 0.0261693
175 1 0.523598 0.141472 0.0912124
173 1 0.448462 0.173846 0.0835653
392 1 0.449573 0.156918 0.2161
390 1 0.44175 0.199996 0.286894
299 1 0.655004 0.0716102 0.123823
297 1 0.628885 0.089764 0.201255
464 1 0.752673 0.17092 0.117829
463 1 0.743037 0.191338 0.0401766
174 1 0.612445 0.23423 0.036669
462 1 0.776902 0.23745 0.167031
409 1 0.682033 0.254453 0.296129
213 1 0.982088 0.151737 0.192607
441 1 0.839041 0.0596188 0.215116
442 1 0.853074 0.0760476 0.135083
443 1 0.909085 0.0420618 0.264779
460 1 0.857405 0.242414 0.169202
444 1 0.838145 0.00253688 0.0926506
59 1 0.96577 0.105619 0.0136692
504 1 0.168357 0.269464 0.0968709
254 1 0.0503342 0.364941 0.0732616
2 1 0.923014 0.451265 0.0712837
256 1 0.0655508 0.449633 0.0726519
255 1 0.144731 0.464533 0.0675083
489 1 0.991485 0.434773 0.19089
322 1 0.157573 0.349276 0.209429
321 1 0.130427 0.346114 0.290256
323 1 0.0653316 0.400888 0.298692
502 1 0.212798 0.328104 0.047234
385 1 0.31833 0.288147 0.191682
500 1 0.293495 0.303734 0.0443796
386 1 0.349019 0.296948 0.269491
326 1 0.178588 0.47841 0.185609
396 1 0.320487 0.433739 0.0951568
398 1 0.400695 0.417104 0.115572
400 1 0.406154 0.420148 0.195142
324 1 0.21804 0.406026 0.191881
171 1 0.446503 0.25817 0.0930755
170 1 0.518705 0.333595 0.0226937
169 1 0.444955 0.302011 0.0231659
413 1 0.575464 0.247867 0.210951
415 1 0.548632 0.320596 0.17719
399 1 0.444191 0.488524 0.225769
493 1 0.931666 0.331934 0.279119
388 1 0.430074 0.287515 0.276891
416 1 0.531635 0.369995 0.246085
411 1 0.657442 0.241026 0.217526
285 1 0.671164 0.390245 0.144058
283 1 0.755138 0.372557 0.136145
287 1 0.658303 0.467959 0.115006
281 1 0.790026 0.386418 0.210859
410 1 0.703829 0.335851 0.304883
414 1 0.601762 0.411267 0.273133
457 1 0.912163 0.255552 0.0385722
458 1 0.884563 0.293075 0.111384
491 1 0.933546 0.365841 0.205343
1 1 0.862532 0.411156 0.0204385
282 1 0.843132 0.46389 0.209297
450 1 0.809796 0.19739 0.33301
461 1 0.817947 0.175725 0.00179824
371 1 0.0176271 0.156912 0.408799
223 1 0.163295 0.1501 0.45918
224 1 0.164381 0.23282 0.474328
384 1 0.0575689 0.082001 0.634128
382 1 0.114365 0.115325 0.582634
380 1 0.193241 0.0972544 0.609852
378 1 0.21368 0.0228516 0.584607
217 1 0.318477 0.14423 0.389605
221 1 0.228548 0.113682 0.483943
219 1 0.259842 0.0899063 0.41406
424 1 0.357784 0.0515171 0.631109
51 1 0.319167 0.185966 0.637089
422 1 0.422489 0.0354664 0.583767
49 1 0.262241 0.234434 0.608678
228 1 0.428844 0.183155 0.467147
226 1 0.431086 0.101766 0.452916
225 1 0.455546 0.0757621 0.377458
229 1 0.563076 0.150699 0.336069
227 1 0.535704 0.0750014 0.364695
230 1 0.504758 0.206901 0.486775
232 1 0.542202 0.25368 0.425817
420 1 0.482743 0.0738456 0.629119
418 1 0.531934 0.00977282 0.651772
53 1 0.400239 0.211893 0.611097
451 1 0.725103 0.156437 0.420767
449 1 0.786139 0.129334 0.375079
231 1 0.594081 0.195441 0.404032
314 1 0.617382 0.160885 0.578269
316 1 0.592043 0.0897484 0.549582
313 1 0.626198 0.163372 0.661823
319 1 0.754037 0.0401123 0.611728
440 1 0.969899 0.360969 0.504251
453 1 0.748423 0.168254 0.500419
456 1 0.835174 0.273049 0.505233
318 1 0.656369 0.0511877 0.514086
370 1 0.93946 0.0513134 0.410515
369 1 0.951725 0.125372 0.369944
383 1 0.0402552 0.00936477 0.599783
452 1 0.866757 0.243861 0.374264
373 1 7.2405e-05 0.209714 0.477729
372 1 0.872979 0.0554695 0.46426
375 1 0.996646 0.173119 0.549984
374 1 0.919753 0.0673559 0.532337
376 1 0.916206 0.145873 0.56271
222 1 0.16801 0.268693 0.392344
435 1 0.142394 0.400713 0.467824
437 1 0.0784773 0.367995 0.427441
439 1 0.0117104 0.40692 0.440634
325 1 0.0876471 0.469105 0.339741
433 1 0.163442 0.350284 0.536308
436 1 0.051069 0.351749 0.614009
434 1 0.128651 0.384851 0.601533
220 1 0.243644 0.26965 0.377825
121 1 0.295441 0.331433 0.466577
122 1 0.285231 0.409755 0.446288
124 1 0.319028 0.420719 0.365819
126 1 0.379474 0.469857 0.375972
50 1 0.234061 0.295724 0.656303
52 1 0.284903 0.36044 0.628679
362 1 0.867631 0.291676 0.637256
37 1 0.24493 0.492585 0.567221
43 1 0.409704 0.456347 0.524683
123 1 0.371175 0.330293 0.507089
125 1 0.427648 0.320596 0.446226
128 1 0.441203 0.4231 0.360573
127 1 0.470056 0.393046 0.428651
56 1 0.419405 0.334465 0.646661
454 1 0.833978 0.307498 0.428122
161 1 0.559143 0.279919 0.609956
438 1 0.996566 0.400493 0.57398
162 1 0.564014 0.33264 0.548064
47 1 0.483506 0.466463 0.640782
45 1 0.489716 0.462049 0.559426
412 1 0.630766 0.366866 0.336534
164 1 0.638779 0.32663 0.507326
496 1 0.904969 0.432995 0.371196
277 1 0.742467 0.481988 0.398593
166 1 0.678192 0.390049 0.541306
168 1 0.726081 0.368035 0.604441
455 1 0.757629 0.246417 0.515595
218 1 0.281113 0.197272 0.338764
355 1 0.104569 0.185611 0.73543
353 1 0.0987913 0.251683 0.692628
26 1 0.0224633 0.085338 0.795422
62 1 0.124746 0.140475 0.906767
64 1 0.110366 0.0595246 0.901889
60 1 0.0611678 0.189496 0.878219
163 1 0.566259 0.332942 0.677728
312 1 0.196511 0.0247419 0.777989
357 1 0.189893 0.177234 0.743414
308 1 0.281381 0.0449598 0.88519
134 1 0.407046 0.0857875 0.965929
359 1 0.230055 0.205894 0.805691
473 1 0.364264 0.182009 0.867696
474 1 0.367212 0.175724 0.779973
310 1 0.279095 0.0213892 0.806078
75 1 0.786902 0.467831 0.799325
478 1 0.492978 0.154734 0.739442
476 1 0.415753 0.113668 0.758277
135 1 0.52816 0.0425604 0.921965
480 1 0.54433 0.143484 0.809304
477 1 0.487835 0.19529 0.911516
136 1 0.445191 0.0404476 0.905951
479 1 0.541288 0.212145 0.850952
475 1 0.419745 0.236074 0.890027
459 1 0.854748 0.248782 0.985459
317 1 0.713213 0.0601144 0.680364
481 1 0.712233 0.0717428 0.992203
483 1 0.670507 0.118087 0.935805
485 1 0.723639 0.14929 0.885266
487 1 0.737828 0.093134 0.824213
30 1 0.925271 0.157956 0.725683
32 1 0.858271 0.106034 0.713153
31 1 0.883006 0.0383365 0.666238
58 1 0.0102882 0.208213 0.939291
28 1 0.955842 0.139436 0.79998
488 1 0.81632 0.0590796 0.844044
57 1 0.950256 0.154886 0.949508
315 1 0.703799 0.1394 0.686054
365 1 0.800711 0.24079 0.807513
25 1 0.995097 0.0113387 0.802419
250 1 0.0750181 0.330308 0.935381
354 1 0.0750807 0.306871 0.746916
356 1 0.138123 0.359922 0.779063
358 1 0.184254 0.316469 0.832551
249 1 0.0913126 0.412217 0.908183
9 1 0.0296966 0.477569 0.803494
251 1 0.164519 0.427204 0.932578
7 1 0.931709 0.489763 0.873499
253 1 0.154677 0.487546 0.988612
33 1 0.201042 0.490045 0.700385
360 1 0.251423 0.287635 0.792557
104 1 0.352692 0.371567 0.873826
498 1 0.313372 0.249672 0.98474
101 1 0.265091 0.476906 0.854254
103 1 0.302429 0.440278 0.917098
82 1 0.596156 0.347516 0.84024
102 1 0.427062 0.39842 0.854684
100 1 0.435549 0.423109 0.777582
84 1 0.596626 0.427923 0.862446
86 1 0.594972 0.430579 0.942025
5 1 0.858355 0.45493 0.898555
165 1 0.644332 0.327755 0.705843
361 1 0.802315 0.246915 0.672285
81 1 0.672671 0.319903 0.827885
83 1 0.704054 0.279619 0.89504
85 1 0.753451 0.33861 0.938197
363 1 0.759215 0.269071 0.737254
3 1 0.886734 0.391871 0.944927
88 1 0.671427 0.440138 0.96884
73 1 0.700822 0.477111 0.799618
364 1 0.938813 0.276913 0.67775
54 1 0.35251 0.368533 0.677728
77 1 0.811427 0.430045 0.73321
366 1 0.94238 0.330814 0.745679
368 1 0.932134 0.283472 0.809152
367 1 0.85559 0.294595 0.839807
63 1 0.0880129 0.0481219 0.982066
252 1 0.0198152 0.339278 0.998968
172 1 0.5775 0.288484 0.985486
87 1 0.702101 0.371571 0.997522
499 1 0.253823 0.130353 0.998292
61 1 0.00247995 0.0318179 0.985573
55 1 0.434801 0.254602 0.673127
79 1 0.829499 0.493836 0.681322
167 1 0.691059 0.395409 0.675489
402 1 0.0481281 0.595056 0.0899748
403 1 0.178687 0.617504 0.0705449
407 1 0.177797 0.649785 0.199033
405 1 0.205566 0.67214 0.125513
401 1 0.102489 0.635057 0.0445921
408 1 0.10705 0.692285 0.216958
406 1 0.0396192 0.635447 0.212726
404 1 0.00599711 0.648187 0.138215
328 1 0.18772 0.514599 0.257476
327 1 0.110139 0.52541 0.279385
394 1 0.304914 0.51654 0.0803397
393 1 0.297064 0.544099 0.154325
397 1 0.383388 0.537575 0.249149
395 1 0.365275 0.584267 0.184018
119 1 0.309837 0.751467 0.14057
117 1 0.358979 0.717091 0.0866462
18 1 0.283911 0.737026 0.283026
17 1 0.316852 0.677357 0.328474
115 1 0.308328 0.661037 0.0437718
445 1 0.923984 0.964497 0.258977
261 1 0.591015 0.578893 0.039338
448 1 0.942207 0.915983 0.131979
334 1 0.522753 0.659917 0.132878
332 1 0.476677 0.720437 0.16606
336 1 0.52475 0.599948 0.189699
335 1 0.588752 0.604648 0.243908
331 1 0.599515 0.724162 0.301256
333 1 0.575066 0.643431 0.311858
154 1 0.802829 0.557962 0.0245057
288 1 0.664881 0.526262 0.177172
286 1 0.736053 0.557839 0.164389
284 1 0.798143 0.528149 0.227926
508 1 0.637469 0.736063 0.0618955
512 1 0.676739 0.700303 0.188898
511 1 0.753996 0.72302 0.191854
510 1 0.657478 0.673252 0.111451
156 1 0.806683 0.623105 0.0727083
273 1 0.7112 0.586105 0.315706
506 1 0.714373 0.748092 0.0110737
4 1 0.927332 0.52491 0.0451266
158 1 0.872956 0.678268 0.0572204
181 1 0.891268 0.681666 0.233491
183 1 0.857683 0.715462 0.301615
492 1 0.956113 0.527113 0.293998
263 1 0.547471 0.509986 0.0532659
264 1 0.467931 0.525653 0.0469672
431 1 0.160111 0.879419 0.241636
429 1 0.124117 0.840949 0.17826
427 1 0.0896775 0.907291 0.141268
425 1 0.128598 0.921039 0.0740676
426 1 0.184482 0.987784 0.0845036
177 1 0.990593 0.763617 0.198567
178 1 0.997508 0.831756 0.246781
294 1 0.406705 0.86859 0.0264941
131 1 0.556391 0.995735 0.0423169
118 1 0.21631 0.825758 0.0643359
432 1 0.241263 0.88256 0.226245
430 1 0.252427 0.96395 0.195721
120 1 0.292931 0.82397 0.105258
428 1 0.261816 0.976822 0.11788
265 1 0.389244 0.950071 0.212605
239 1 0.197187 0.998149 0.324753
268 1 0.390045 0.82682 0.264524
19 1 0.266361 0.613676 0.312861
72 1 0.987789 0.864756 0.0344538
330 1 0.534981 0.777672 0.196072
266 1 0.429254 0.875867 0.217207
302 1 0.545713 0.922951 0.210006
292 1 0.460324 0.823702 0.0668035
290 1 0.523735 0.798949 0.0135396
300 1 0.551258 0.987408 0.255049
329 1 0.530269 0.760977 0.275065
507 1 0.807084 0.788699 0.0914174
110 1 0.759526 0.815469 0.317842
301 1 0.708088 0.992166 0.122762
505 1 0.754052 0.813694 0.0297284
304 1 0.622613 0.889421 0.173514
303 1 0.654871 0.929607 0.11212
509 1 0.766595 0.803816 0.159966
108 1 0.685802 0.850438 0.299036
105 1 0.706927 0.985417 0.302888
106 1 0.701184 0.917461 0.255805
71 1 0.010127 0.786417 0.0405444
179 1 0.909018 0.746156 0.183504
446 1 0.914731 0.973719 0.0753906
447 1 0.982465 0.956217 0.196095
129 1 0.477869 0.963559 0.0836478
180 1 0.0120433 0.809047 0.323488
107 1 0.783852 0.994092 0.328473
348 1 0.0174911 0.556561 0.447539
23 1 0.145146 0.616335 0.37667
24 1 0.143761 0.698445 0.39612
352 1 0.999544 0.678875 0.454252
279 1 0.774419 0.501719 0.469443
40 1 0.142915 0.592603 0.531842
38 1 0.13575 0.629301 0.606352
346 1 0.96347 0.510552 0.505003
190 1 0.323245 0.728776 0.455749
21 1 0.225892 0.592739 0.382899
146 1 0.952437 0.800663 0.633124
247 1 0.842312 0.889886 0.55664
39 1 0.220522 0.567462 0.53886
41 1 0.398961 0.533224 0.493538
42 1 0.361213 0.57742 0.546966
188 1 0.250383 0.723435 0.481535
468 1 0.561571 0.586021 0.499163
466 1 0.50947 0.594872 0.431793
465 1 0.447432 0.643322 0.447623
467 1 0.471192 0.722156 0.411791
469 1 0.515064 0.782926 0.452819
48 1 0.49772 0.548446 0.661758
46 1 0.432974 0.602379 0.661661
44 1 0.422719 0.634449 0.583869
91 1 0.53459 0.734764 0.620794
470 1 0.624921 0.639402 0.483781
275 1 0.677665 0.531318 0.371143
471 1 0.59813 0.763174 0.453921
278 1 0.792475 0.634661 0.466902
274 1 0.705077 0.655526 0.361351
276 1 0.778282 0.67446 0.395639
80 1 0.768164 0.503132 0.618772
78 1 0.711391 0.560706 0.636064
244 1 0.750702 0.739771 0.585508
472 1 0.623914 0.714527 0.521512
280 1 0.826891 0.566639 0.447168
350 1 0.980269 0.615863 0.407872
184 1 0.913221 0.721327 0.362765
351 1 0.935279 0.702916 0.498949
248 1 0.853965 0.805463 0.548
345 1 0.961533 0.542054 0.581338
347 1 0.904351 0.604587 0.580038
349 1 0.952332 0.671316 0.577445
22 1 0.156346 0.753553 0.336333
35 1 0.265136 0.507888 0.648658
234 1 0.0341821 0.951293 0.425299
236 1 0.0143799 0.959795 0.349309
233 1 0.0966472 0.894018 0.436103
147 1 0.0553974 0.752786 0.551499
149 1 0.121924 0.775386 0.5941