ITEM: TIMESTEP
0
ITEM: NUMBER OF ATOMS
512
ITEM: BOX BOUNDS pp pp pp
2.5208830869999999e-01 2.5085452691299999e+01
2.5208830869999999e-01 2.5085452691299999e+01
2.5208830869999999e-01 2.5085452691299999e+01
ITEM: ATOMS id type xs ys zs
1 1 0.0635581 0.069046 0.146897
3 1 0.0385456 0.0152747 0.0920044
25 1 0.0472271 0.197106 0.0754667
102 1 0.0566328 0.15017 0.323069
103 1 0.1634 0.119542 0.247713
105 1 0.135555 0.163741 0.320576
2 1 0.201268 0.126816 0.0801877
5 1 0.248626 0.061355 0.0683456
6 1 0.399923 0.146603 0.230607
107 1 0.324211 0.14755 0.199709
31 1 0.241799 0.19459 0.0444233
12 1 0.394459 0.0153014 0.101816
127 1 0.28632 0.224576 0.211223
108 1 0.20335 0.0463694 0.272213
8 1 0.530599 0.0998368 0.0956771
112 1 0.456245 0.188101 0.180059
11 1 0.463231 0.154735 0.104051
115 1 0.52172 0.0166761 0.233757
113 1 0.543187 0.170576 0.281467
116 1 0.584377 0.0141472 0.289782
133 1 0.493991 0.236134 0.320277
438 1 0.551711 0.245207 0.00564487
9 1 0.601259 0.14324 0.110828
13 1 0.620394 0.0952794 0.169921
14 1 0.693428 0.0613532 0.14598
15 1 0.747912 0.13584 0.0141837
119 1 0.754238 0.0864425 0.195955
96 1 0.778233 0.0164841 0.0342036
193 1 0.759546 0.017982 0.244189
19 1 0.798458 0.197621 0.0600742
17 1 0.770559 0.203488 0.136504
117 1 0.600532 0.148983 0.333068
137 1 0.67325 0.189761 0.316747
18 1 0.997715 0.0956464 0.204327
20 1 0.92758 0.108933 0.161012
21 1 0.928472 0.190895 0.133855
23 1 0.848463 0.00714394 0.0758063
22 1 0.965927 0.192998 0.0607798
123 1 0.881143 0.0355919 0.292256
121 1 0.809054 0.169472 0.327194
124 1 0.809557 0.234944 0.281799
27 1 0.0476722 0.278662 0.109559
28 1 0.128693 0.283629 0.209003
29 1 0.0517558 0.261136 0.194922
30 1 0.114985 0.370092 0.224621
429 1 0.109286 0.349491 0.0234623
26 1 0.175964 0.379019 0.0570894
46 1 0.0924186 0.403291 0.152607
49 1 0.155606 0.439433 0.112371
47 1 0.0157073 0.483547 0.0391895
144 1 0.0190765 0.489099 0.319571
32 1 0.231572 0.258379 0.0981727
33 1 0.302583 0.271374 0.140215
35 1 0.313094 0.369327 0.0277804
34 1 0.39827 0.344583 0.18573
146 1 0.308075 0.498369 0.194767
52 1 0.383664 0.41321 0.0416358
129 1 0.386389 0.328009 0.263455
125 1 0.225571 0.292945 0.315072
130 1 0.25071 0.361943 0.273682
131 1 0.334413 0.384793 0.292656
36 1 0.51037 0.360939 0.0781055
37 1 0.530519 0.391819 0.153291
55 1 0.450053 0.409992 0.172059
38 1 0.50198 0.423985 0.0282738
54 1 0.575761 0.447051 0.00937484
138 1 0.623777 0.395801 0.235774
39 1 0.616809 0.279075 0.170037
40 1 0.752752 0.281164 0.145851
41 1 0.679976 0.305053 0.121875
136 1 0.622568 0.311755 0.242351
59 1 0.609296 0.477995 0.0737368
154 1 0.707952 0.432129 0.249823
140 1 0.73743 0.375273 0.299496
43 1 0.884225 0.358754 0.149718
44 1 0.884994 0.326161 0.024053
45 1 0.899952 0.388787 0.0731334
142 1 0.889577 0.251176 0.262814
141 1 0.822549 0.401326 0.193688
162 1 0.861595 0.473065 0.223166
143 1 0.901008 0.329028 0.299303
160 1 0.964764 0.428923 0.304294
163 1 0.88676 0.460945 0.302129
104 1 0.0403764 0.0691247 0.363135
204 1 0.129265 0.0509594 0.477473
205 1 0.127425 0.132543 0.459519
206 1 0.187748 0.0164522 0.426975
306 1 0.0321811 0.0587865 0.62429
307 1 0.173263 0.0316126 0.613502
207 1 0.176 0.171354 0.519667
304 1 0.131089 0.176939 0.587904
242 1 0.00280793 0.210854 0.568228
226 1 0.0753026 0.238456 0.584964
305 1 0.097592 0.00354194 0.606796
211 1 0.368559 0.155046 0.499322
109 1 0.312644 0.143703 0.342705
208 1 0.263705 0.167655 0.405918
209 1 0.289749 0.127675 0.479101
111 1 0.379143 0.0194598 0.412531
128 1 0.359003 0.218802 0.350237
311 1 0.34295 0.055922 0.63513
212 1 0.372879 0.0337099 0.559146
332 1 0.27866 0.216615 0.630654
231 1 0.356205 0.232244 0.530118
331 1 0.356959 0.235588 0.61465
110 1 0.429323 0.0450197 0.351082
213 1 0.543055 0.164792 0.486661
114 1 0.50472 0.0549958 0.383712
216 1 0.599892 0.104853 0.482723
132 1 0.440721 0.199824 0.372065
214 1 0.528004 0.167382 0.571922
215 1 0.461878 0.0439888 0.557984
336 1 0.576638 0.22359 0.603075
120 1 0.699326 0.0697496 0.37803
217 1 0.682419 0.115674 0.446316
218 1 0.697085 0.0458966 0.597355
322 1 0.633141 0.0170406 0.640367
318 1 0.659899 0.193003 0.620221
219 1 0.699232 0.216978 0.551352
122 1 0.964206 0.0791042 0.389801
220 1 0.968175 0.120619 0.462529
224 1 0.816254 0.0248216 0.417856
223 1 0.834378 0.18944 0.405566
323 1 0.858735 0.112337 0.612166
346 1 0.962095 0.188309 0.64537
221 1 0.944441 0.0694179 0.518364
222 1 0.858338 0.0948117 0.534956
246 1 0.884661 0.200197 0.625587
126 1 0.0546612 0.346057 0.388788
225 1 0.00508156 0.279054 0.381456
227 1 0.0641716 0.356572 0.477191
229 1 0.198621 0.311635 0.390868
247 1 0.00583137 0.41115 0.492283
349 1 0.0789226 0.481789 0.600517
350 1 0.15319 0.4708 0.641741
230 1 0.275912 0.307372 0.435087
232 1 0.314805 0.379617 0.443218
228 1 0.203154 0.306337 0.560123
248 1 0.231121 0.383057 0.547553
333 1 0.232178 0.28612 0.638744
233 1 0.307891 0.395143 0.534166
234 1 0.478375 0.291329 0.46878
134 1 0.544086 0.376376 0.352465
135 1 0.462535 0.378645 0.356849
235 1 0.561599 0.287853 0.461619
237 1 0.585979 0.362535 0.423274
252 1 0.432789 0.444759 0.391017
236 1 0.473649 0.327016 0.54389
251 1 0.45509 0.408294 0.534111
254 1 0.525751 0.450755 0.542747
359 1 0.539461 0.478641 0.62268
139 1 0.679901 0.25985 0.36157
238 1 0.709706 0.255047 0.437588
156 1 0.707468 0.398898 0.379152
158 1 0.702548 0.479581 0.386722
239 1 0.718927 0.352413 0.554214
240 1 0.759784 0.281254 0.573757
341 1 0.656122 0.378206 0.593102
363 1 0.777151 0.435746 0.642795
241 1 0.800194 0.263443 0.418154
243 1 0.926096 0.307959 0.375629
245 1 0.82574 0.372129 0.488764
261 1 0.847702 0.417617 0.416548
263 1 0.878762 0.488532 0.437596
259 1 0.943133 0.377573 0.546551
244 1 0.88989 0.323424 0.509686
367 1 0.952336 0.472957 0.663799
309 1 0.179003 0.0655408 0.741477
389 1 0.0302918 0.0654588 0.760008
308 1 0.0189308 0.143997 0.759655
409 1 0.095419 0.0329745 0.882877
410 1 0.0752344 0.164869 0.911322
430 1 0.162407 0.193408 0.817126
431 1 0.137674 0.211252 0.895437
408 1 0.0981425 0.0905492 0.945712
310 1 0.208989 0.00619909 0.688936
312 1 0.231337 0.128867 0.727345
7 1 0.389049 0.0750336 0.984062
412 1 0.355557 0.0808679 0.776288
413 1 0.290545 0.12865 0.791905
414 1 0.344036 0.0535248 0.917286
415 1 0.262447 0.0787132 0.937157
4 1 0.232804 0.0267068 0.996922
411 1 0.385993 0.161412 0.989239
313 1 0.448972 0.130729 0.688931
314 1 0.524856 0.0889675 0.701387
316 1 0.499356 0.00850439 0.698394
315 1 0.407003 0.141844 0.757907
416 1 0.517093 0.0545355 0.86556
417 1 0.518419 0.179547 0.956586
419 1 0.443721 0.195772 0.929115
421 1 0.578861 0.100585 0.837947
338 1 0.529009 0.240618 0.817358
317 1 0.451738 0.000618821 0.761759
319 1 0.725281 0.124219 0.746782
320 1 0.654678 0.0155552 0.721881
342 1 0.741407 0.205096 0.756548
422 1 0.650735 0.0680055 0.881539
423 1 0.617344 0.0363707 0.94792
321 1 0.78648 0.0854338 0.786018
424 1 0.68222 0.211316 0.917791
16 1 0.675921 0.167377 0.986652
324 1 0.853355 0.0956096 0.74109
403 1 0.98992 0.0282772 0.691046
325 1 0.886187 0.172408 0.757708
425 1 0.830874 0.0939939 0.928189
426 1 0.94474 0.157717 0.808431
427 1 0.833357 0.174927 0.895872
428 1 0.905239 0.0614751 0.918038
24 1 0.944967 0.0574654 0.993827
444 1 0.963492 0.221809 0.918505
447 1 0.876572 0.220347 0.943912
326 1 0.0674681 0.258651 0.738155
327 1 0.0375762 0.387465 0.73828
330 1 0.154343 0.394039 0.673757
329 1 0.119198 0.407198 0.752274
345 1 0.0177366 0.316189 0.774146
328 1 0.143581 0.264815 0.769974
432 1 0.0635184 0.367618 0.892741
446 1 0.00139053 0.277813 0.963347
449 1 0.0937363 0.415611 0.954381
469 1 0.00778205 0.495387 0.868434
354 1 0.302189 0.412683 0.698926
355 1 0.369998 0.452517 0.678384
334 1 0.333052 0.278691 0.754471
335 1 0.312715 0.36493 0.763681
435 1 0.203162 0.330899 0.90182
436 1 0.271211 0.283803 0.87576
437 1 0.343712 0.31208 0.909765
434 1 0.345269 0.301509 0.989331
454 1 0.364771 0.480449 0.989566
433 1 0.212997 0.401114 0.861248
455 1 0.226371 0.453015 0.93431
456 1 0.347273 0.471247 0.852409
337 1 0.41429 0.275756 0.752951
340 1 0.562494 0.251721 0.743551
357 1 0.504741 0.398099 0.715483
360 1 0.572373 0.425324 0.675077
339 1 0.458499 0.295694 0.821639
439 1 0.575443 0.297673 0.946734
459 1 0.404394 0.490001 0.919065
457 1 0.511132 0.41492 0.852386
361 1 0.489015 0.454716 0.78395
460 1 0.593495 0.449864 0.870097
344 1 0.792123 0.375402 0.694151
343 1 0.638525 0.291425 0.74802
440 1 0.687224 0.251627 0.798684
441 1 0.656274 0.295438 0.940653
465 1 0.665043 0.408456 0.847412
463 1 0.705076 0.449362 0.780083
464 1 0.761564 0.485908 0.819467
347 1 0.873048 0.359627 0.704271
42 1 0.803517 0.33823 0.992892
442 1 0.801449 0.330808 0.848855
443 1 0.989015 0.349671 0.920752
445 1 0.86966 0.30567 0.828896
348 1 0.899907 0.37533 0.78234
467 1 0.810572 0.379029 0.922006
50 1 0.129406 0.573162 0.0287161
48 1 0.0459418 0.551107 0.00444743
51 1 0.120684 0.596402 0.111182
165 1 0.185056 0.531505 0.248434
66 1 0.0667181 0.657721 0.119872
67 1 0.109866 0.729617 0.0998036
69 1 0.163251 0.749892 0.220125
177 1 0.00937251 0.632325 0.291448
269 1 0.187526 0.589547 0.308813
166 1 0.239744 0.555154 0.18678
148 1 0.373509 0.545827 0.203858
70 1 0.3965 0.652608 0.124758
71 1 0.306422 0.673815 0.110909
475 1 0.274816 0.623207 0.0534834
168 1 0.360458 0.703011 0.239834
169 1 0.304295 0.686338 0.297692
53 1 0.404865 0.575128 0.127784
56 1 0.517433 0.580297 0.0622548
152 1 0.530472 0.544358 0.227503
58 1 0.599342 0.561395 0.0709001
151 1 0.520395 0.614138 0.188274
74 1 0.528495 0.68014 0.238336
171 1 0.420693 0.747692 0.274663
172 1 0.472896 0.68899 0.297277
153 1 0.610178 0.523281 0.231283
60 1 0.730758 0.523574 0.146137
61 1 0.777725 0.524918 0.0752438
461 1 0.728022 0.520531 0.000265997
62 1 0.74054 0.603806 0.165626
77 1 0.606557 0.718118 0.115244
78 1 0.628381 0.745771 0.0387081
80 1 0.755298 0.690228 0.0430903
155 1 0.638143 0.555609 0.303618
161 1 0.776449 0.603109 0.290396
175 1 0.698542 0.706011 0.297496
63 1 0.98273 0.512716 0.11095
64 1 0.900248 0.527755 0.0850346
159 1 0.806949 0.613742 0.211221
65 1 0.891192 0.609837 0.074995
81 1 0.942512 0.741264 0.183086
82 1 0.876911 0.723015 0.135458
83 1 0.923506 0.734567 0.26358
178 1 0.926065 0.654046 0.286637
488 1 0.926785 0.625446 0.000818401
68 1 0.107528 0.780646 0.169672
84 1 0.0686828 0.94176 0.111748
88 1 0.17872 0.952215 0.185349
87 1 0.178451 0.886948 0.014602
85 1 0.177208 0.802557 0.00561486
86 1 0.000549978 0.889419 0.125221
106 1 0.150805 0.979887 0.256836
183 1 0.015007 0.928455 0.282799
181 1 0.0525157 0.795993 0.309135
182 1 0.0708644 0.862744 0.266578
89 1 0.2413 0.774816 0.197546
72 1 0.384073 0.837692 0.159468
496 1 0.339735 0.797622 0.026996
90 1 0.255096 0.897813 0.0572004
92 1 0.396271 0.792685 0.0953188
185 1 0.255733 0.91263 0.195699
495 1 0.3244 0.880217 0.0185146
186 1 0.257263 0.844329 0.241657
91 1 0.367263 0.947277 0.14371
190 1 0.391368 0.954148 0.226726
10 1 0.466334 0.988569 0.058648
76 1 0.54623 0.833997 0.13128
93 1 0.581114 0.874031 0.0533831
191 1 0.458232 0.90417 0.231759
95 1 0.521489 0.946049 0.193173
75 1 0.603988 0.791628 0.162085
79 1 0.708867 0.761705 0.0346785
174 1 0.717841 0.754027 0.233699
94 1 0.608837 0.945867 0.066358
97 1 0.744483 0.940114 0.0359209
98 1 0.684106 0.934131 0.0973001
194 1 0.739621 0.84117 0.242792
200 1 0.818139 0.833032 0.263161
99 1 0.918691 0.992626 0.0336997
509 1 0.887569 0.828392 0.0529489
201 1 0.836691 0.986599 0.232728
203 1 0.940088 0.898793 0.246698
100 1 0.845136 0.797643 0.119828
101 1 0.939438 0.921848 0.170892
145 1 0.0207185 0.522349 0.39354
164 1 0.0329221 0.653373 0.365372
264 1 0.00685624 0.74822 0.466367
170 1 0.179022 0.717841 0.404767
351 1 0.0298346 0.516253 0.6596
265 1 0.0024151 0.729078 0.550762
266 1 0.00597545 0.648164 0.559906
267 1 0.0815899 0.623487 0.542516
369 1 0.145811 0.660433 0.59584
149 1 0.22855 0.558169 0.374395
150 1 0.312646 0.566521 0.349063
249 1 0.3408 0.522298 0.494914
270 1 0.376181 0.593589 0.482883
271 1 0.293256 0.698915 0.476242
268 1 0.212633 0.711495 0.481435
167 1 0.335689 0.644351 0.360308
353 1 0.316456 0.525791 0.575182
372 1 0.259484 0.587078 0.576012
374 1 0.297784 0.654161 0.604334
250 1 0.430535 0.505188 0.335809
253 1 0.494123 0.551324 0.354913
275 1 0.498635 0.534892 0.439552
255 1 0.461856 0.5963 0.486405
173 1 0.572912 0.698954 0.394846
274 1 0.50821 0.724862 0.445557
276 1 0.494884 0.699521 0.589932
277 1 0.413392 0.722121 0.595412
379 1 0.514236 0.639387 0.639771
157 1 0.621571 0.50374 0.37134
279 1 0.6823 0.689991 0.467702
278 1 0.617552 0.647669 0.448889
176 1 0.773212 0.672895 0.333423
256 1 0.657592 0.56666 0.538948
257 1 0.716047 0.506765 0.533327
260 1 0.792819 0.538368 0.525872
258 1 0.659334 0.602356 0.613311
282 1 0.792558 0.722857 0.528562
280 1 0.661867 0.728599 0.542535
281 1 0.696351 0.679797 0.600009
147 1 0.988745 0.593353 0.409146
262 1 0.820048 0.551295 0.450834
180 1 0.878597 0.69583 0.429499
365 1 0.906297 0.512554 0.60507
368 1 0.865131 0.584087 0.641449
284 1 0.855042 0.68077 0.512333
187 1 0.166181 0.795616 0.376572
184 1 0.084679 0.820854 0.38526
287 1 0.123884 0.865978 0.498437
286 1 0.058618 0.886623 0.538284
289 1 0.196388 0.885349 0.538621
393 1 0.164124 0.80919 0.648493
288 1 0.0181866 0.958799 0.503003
273 1 0.340046 0.772929 0.478194
272 1 0.339179 0.78687 0.393793
188 1 0.298016 0.859623 0.378362
290 1 0.398278 0.939568 0.415327
189 1 0.356864 0.908659 0.349824
210 1 0.25183 0.997466 0.474193
291 1 0.249253 0.919224 0.480749
377 1 0.242779 0.799214 0.662561
292 1 0.366421 0.88189 0.576513
394 1 0.309239 0.924528 0.627246
118 1 0.548997 0.988951 0.364955
293 1 0.522849 0.808138 0.451346
192 1 0.516917 0.845944 0.380029
378 1 0.414556 0.782633 0.65353
396 1 0.429188 0.854462 0.619136
294 1 0.527304 0.940794 0.506846
295 1 0.495586 0.972111 0.580549
297 1 0.741837 0.999051 0.398574
197 1 0.791415 0.860062 0.385732
198 1 0.719579 0.852817 0.418917
196 1 0.657368 0.884058 0.367833
195 1 0.600415 0.83079 0.338879
298 1 0.647114 0.869291 0.529123
395 1 0.624031 0.823648 0.644118
299 1 0.73729 0.985133 0.54998
400 1 0.676495 0.870697 0.602331
404 1 0.789307 0.939969 0.599184
296 1 0.613117 0.94534 0.507332
179 1 0.931511 0.763966 0.443696
300 1 0.983398 0.937319 0.431269
301 1 0.901103 0.907946 0.452955
199 1 0.811907 0.797512 0.340739
202 1 0.86486 0.985539 0.35718
285 1 0.82081 0.804924 0.618623
385 1 0.897386 0.785254 0.634111
283 1 0.817476 0.806266 0.535064
302 1 0.896071 0.891474 0.533008
303 1 0.872911 0.95511 0.578364
405 1 0.944417 0.861416 0.6462
370 1 0.115865 0.655374 0.677393
371 1 0.0601782 0.715856 0.702848
352 1 0.159933 0.537139 0.799491
448 1 0.0874258 0.589177 0.795631
450 1 0.0546658 0.571345 0.869341
451 1 0.179721 0.522096 0.934264
472 1 0.0730714 0.674058 0.949409
473 1 0.143664 0.69369 0.902111
486 1 0.0028412 0.69149 0.906968
356 1 0.354577 0.533473 0.68052
373 1 0.303238 0.642853 0.695349
375 1 0.232659 0.673804 0.726273
452 1 0.20378 0.559856 0.861996
453 1 0.341514 0.546838 0.822213
358 1 0.386798 0.559409 0.758073
476 1 0.267565 0.673894 0.985688
477 1 0.323618 0.644503 0.933958
480 1 0.379843 0.703686 0.930281
381 1 0.562363 0.680256 0.697682
57 1 0.495132 0.590713 0.982276
481 1 0.595408 0.613396 0.835654
73 1 0.438838 0.707676 0.993445
380 1 0.513824 0.682509 0.768063
479 1 0.505542 0.669048 0.963522
382 1 0.517223 0.602754 0.80537
362 1 0.764755 0.511008 0.677171
383 1 0.772755 0.699493 0.731811
458 1 0.635053 0.578672 0.773386
462 1 0.687284 0.59026 0.991552
364 1 0.711314 0.61189 0.794431
466 1 0.741712 0.563839 0.856225
483 1 0.74862 0.648321 0.974979
484 1 0.685201 0.733544 0.867511
366 1 0.833566 0.555862 0.705459
386 1 0.983139 0.687988 0.685668
468 1 0.925325 0.507883 0.854523
470 1 0.881554 0.527276 0.922218
471 1 0.867091 0.613167 0.941664
388 1 0.819053 0.672975 0.800659
387 1 0.955034 0.654074 0.761473
489 1 0.893932 0.703455 0.794663
390 1 0.155138 0.89199 0.676158
474 1 0.15623 0.774589 0.886332
493 1 0.025278 0.940677 0.944753
391 1 0.113178 0.886522 0.751555
490 1 0.0220824 0.993997 0.876058
491 1 0.0527958 0.869022 0.921754
492 1 0.154685 0.878912 0.819632
497 1 0.184466 0.951455 0.847712
376 1 0.248093 0.75895 0.742009
392 1 0.352179 0.973042 0.674523
478 1 0.220022 0.792601 0.938518
498 1 0.252764 0.965557 0.805121
499 1 0.328872 0.855413 0.823777
500 1 0.315083 0.932344 0.859377
397 1 0.587369 0.875897 0.698668
418 1 0.468078 0.965416 0.977131
398 1 0.404285 0.860017 0.780772
420 1 0.499875 0.986434 0.824629
501 1 0.462246 0.809521 0.808904
502 1 0.44202 0.878895 0.966295
503 1 0.507509 0.837617 0.941066
504 1 0.522057 0.85499 0.851895
505 1 0.595935 0.961346 0.926324
402 1 0.697534 0.940567 0.743109
399 1 0.737813 0.773508 0.738501
384 1 0.664559 0.75376 0.787828
482 1 0.641662 0.792966 0.916087
506 1 0.689905 0.860141 0.940244
401 1 0.634848 0.888329 0.7652
507 1 0.662989 0.927276 0.893127
494 1 0.999718 0.821244 0.880292
487 1 0.964241 0.763941 0.927637
508 1 0.833495 0.929133 0.768755
511 1 0.811159 0.914503 0.899991
407 1 0.948318 0.859527 0.732014
406 1 0.867912 0.853673 0.753931
512 1 0.867884 0.94249 0.844983
510 1 0.837328 0.828176 0.918917
485 1 0.828973 0.807631 0.993555
ITEM: TIMESTEP
250
ITEM: NUMBER OF ATOMS
512
ITEM: BOX BOUNDS pp pp pp
2.5208830869999999e-01 2.5085452691299999e+01
2.5208830869999999e-01 2.5085452691299999e+01
2.5208830869999999e-01 2.5085452691299999e+01
ITEM: ATOMS id type xs ys zs
1 1 0.0974781 0.0570082 0.138127
160 1 0.943357 0.422841 0.298565
25 1 0.0587223 0.200757 0.0822402
102 1 0.0842089 0.170634 0.300236
103 1 0.184861 0.0945064 0.244722
105 1 0.154255 0.132933 0.318047
2 1 0.20475 0.120217 0.0616053
5 1 0.272719 0.0728759 0.0605695
6 1 0.386659 0.11572 0.211197
107 1 0.312536 0.117416 0.174776
31 1 0.22186 0.191742 0.0187456
12 1 0.416148 0.0265706 0.0942242
127 1 0.279502 0.18902 0.184018
108 1 0.229867 0.0447022 0.284462
8 1 0.503828 0.146949 0.0782851
112 1 0.418023 0.190599 0.185104
11 1 0.427454 0.19329 0.103936
115 1 0.531101 0.0233687 0.237981
113 1 0.522245 0.177534 0.293756
116 1 0.580219 0.0242474 0.304393
133 1 0.486014 0.241329 0.329079
144 1 0.00314333 0.480659 0.289178
9 1 0.573428 0.181851 0.113687
13 1 0.580244 0.137401 0.185295
14 1 0.651527 0.0933478 0.158476
15 1 0.747561 0.131856 0.0328646
119 1 0.705876 0.10566 0.217227
96 1 0.758476 0.00157002 0.0263097
193 1 0.720461 0.0318943 0.256886
19 1 0.813788 0.183557 0.0689299
17 1 0.782863 0.207838 0.139137
201 1 0.798062 0.0093004 0.230549
137 1 0.656539 0.199672 0.317908
18 1 0.0299698 0.0506892 0.185822
20 1 0.957847 0.0774704 0.15536
21 1 0.956686 0.161634 0.152607
23 1 0.831309 0.0130298 0.0743218
22 1 0.98212 0.183479 0.0699733
123 1 0.856547 0.0502421 0.28057
60 1 0.75842 0.488879 0.114828
124 1 0.815876 0.225284 0.268612
27 1 0.0500179 0.286027 0.101759
28 1 0.118656 0.290106 0.211951
29 1 0.0429647 0.280981 0.184785
30 1 0.12243 0.3735 0.234873
429 1 0.0900609 0.383724 0.0317033
26 1 0.165762 0.383343 0.0644797
46 1 0.102448 0.419509 0.170788
49 1 0.163309 0.444241 0.121733
143 1 0.930262 0.279691 0.309863
163 1 0.870872 0.463088 0.270287
32 1 0.229143 0.242024 0.0849149
33 1 0.301412 0.242278 0.119426
35 1 0.31744 0.375814 0.0304115
34 1 0.371537 0.346558 0.164117
162 1 0.864402 0.460619 0.190779
52 1 0.359521 0.455994 0.0457782
129 1 0.383097 0.315444 0.236892
125 1 0.229388 0.270913 0.317845
130 1 0.25777 0.341062 0.282843
131 1 0.334889 0.35413 0.296361
36 1 0.509587 0.367967 0.0792946
37 1 0.502296 0.400028 0.157232
55 1 0.425517 0.418669 0.158163
38 1 0.534268 0.423377 0.0202946
54 1 0.618552 0.436182 0.0444727
138 1 0.636373 0.379348 0.241976
39 1 0.623434 0.307735 0.133614
40 1 0.762156 0.287076 0.145554
41 1 0.703163 0.321575 0.0994066
136 1 0.635431 0.301286 0.209716
59 1 0.603895 0.491211 0.106906
154 1 0.709841 0.41512 0.238215
140 1 0.756885 0.398404 0.307049
43 1 0.937783 0.356165 0.133843
44 1 0.876693 0.320735 0.017206
45 1 0.921756 0.380113 0.0505516
142 1 0.89378 0.212827 0.272697
141 1 0.862559 0.373664 0.169754
104 1 0.026766 0.109028 0.311294
16 1 0.685003 0.176609 0.00943646
42 1 0.795578 0.344322 0.00729035
299 1 0.7413 -0.00828607 0.549278
204 1 0.112288 0.0539244 0.466076
205 1 0.111614 0.13868 0.461389
206 1 0.184063 0.02792 0.426945
306 1 0.0375849 0.0523154 0.617652
307 1 0.177499 0.0555617 0.615097
207 1 0.159785 0.17267 0.519511
304 1 0.109505 0.183674 0.586191
242 1 0.986848 0.221148 0.535188
226 1 0.0602895 0.250831 0.562252
367 1 0.957018 0.481682 0.641561
211 1 0.395462 0.179228 0.509377
109 1 0.325181 0.150586 0.350191
208 1 0.290082 0.140093 0.424702
209 1 0.336782 0.126766 0.493813
111 1 0.373895 -0.00365665 0.407016
128 1 0.353538 0.228207 0.339139
311 1 0.339867 0.0188243 0.614003
212 1 0.393554 -0.000655318 0.545618
332 1 0.254022 0.219689 0.612873
231 1 0.369658 0.249516 0.539601
331 1 0.336367 0.230109 0.620344
110 1 0.416782 0.0538492 0.361825
213 1 0.543888 0.119853 0.493563
114 1 0.487764 0.0685652 0.397623
216 1 0.60461 0.0662652 0.507776
132 1 0.419833 0.231135 0.386644
214 1 0.53027 0.162408 0.566784
215 1 0.466357 0.0304019 0.562458
336 1 0.585957 0.224128 0.572793
120 1 0.685055 0.0672483 0.396462
217 1 0.666908 0.105048 0.469381
218 1 0.709671 0.0565432 0.597715
322 1 0.642759 0.0305746 0.64249
318 1 0.629875 0.188598 0.626879
219 1 0.700371 0.178875 0.592759
122 1 0.960066 0.13611 0.342821
220 1 0.962905 0.147127 0.440485
224 1 0.816148 0.0200711 0.409493
223 1 0.816581 0.191358 0.40065
323 1 0.834484 0.15741 0.587313
346 1 0.944978 0.222605 0.614388
221 1 0.912714 0.0930972 0.478953
222 1 0.839211 0.129415 0.507694
246 1 0.867782 0.233118 0.592782
126 1 0.0435077 0.348739 0.387128
225 1 0.0299629 0.263727 0.394744
227 1 0.0640467 0.37118 0.463604
229 1 0.198326 0.295281 0.393054
247 1 0.000861279 0.41133 0.50097
349 1 0.0871398 0.488684 0.604284
350 1 0.143678 0.500737 0.658499
230 1 0.259342 0.282453 0.443468
232 1 0.29878 0.365002 0.456388
228 1 0.185824 0.329534 0.584534
248 1 0.237927 0.395911 0.571559
333 1 0.223732 0.28599 0.64602
233 1 0.315306 0.373265 0.534729
234 1 0.484922 0.310444 0.502296
134 1 0.583311 0.405981 0.383401
135 1 0.505905 0.389747 0.349472
235 1 0.56586 0.313172 0.473873
237 1 0.579366 0.393898 0.464757
252 1 0.447385 0.440472 0.378245
236 1 0.482458 0.346195 0.576049
251 1 0.46199 0.424179 0.558455
254 1 0.533326 0.46581 0.56521
117 1 0.592764 0.152506 0.341664
139 1 0.653413 0.26622 0.373298
238 1 0.692605 0.240823 0.440454
156 1 0.701508 0.411771 0.370342
158 1 0.707243 0.491751 0.382449
239 1 0.684506 0.323537 0.572704
240 1 0.747112 0.269816 0.598448
341 1 0.630877 0.363981 0.62052
363 1 0.784346 0.433489 0.634666
241 1 0.771528 0.255924 0.431064
243 1 0.949867 0.263952 0.392023
245 1 0.838252 0.394642 0.506675
261 1 0.837656 0.425411 0.426763
355 1 0.397399 0.442828 0.672214
259 1 0.958873 0.369964 0.557334
244 1 0.895456 0.334329 0.515188
210 1 0.24422 0.0171077 0.486085
305 1 0.105765 0.0146809 0.596918
118 1 0.538496 0.00392439 0.370702
202 1 0.875378 0.00380638 0.345228
121 1 0.786453 0.177494 0.325505
309 1 0.189229 0.078627 0.740554
389 1 0.0348038 0.0279878 0.752783
308 1 0.0243155 0.111515 0.760817
409 1 0.120731 0.0276611 0.904932
410 1 0.0833644 0.148936 0.933544
430 1 0.156995 0.181304 0.821403
431 1 0.147838 0.194523 0.905987
408 1 0.12299 0.0835941 0.964495
310 1 0.208923 0.0239489 0.686963
312 1 0.249121 0.134745 0.72599
7 1 0.394112 0.114162 0.974905
412 1 0.364208 0.0992777 0.783189
413 1 0.290773 0.140653 0.790135
414 1 0.371382 0.0731832 0.909206
415 1 0.282434 0.0686197 0.927734
4 1 0.267815 0.0204236 0.989257
411 1 0.41512 0.194174 0.949343
313 1 0.465091 0.113879 0.679193
314 1 0.5303 0.0746364 0.708983
445 1 0.870605 0.346816 0.836992
315 1 0.419854 0.149111 0.74719
416 1 0.528804 0.054764 0.875572
417 1 0.550617 0.200052 0.95629
419 1 0.487655 0.194347 0.906904
421 1 0.592637 0.0997634 0.853557
338 1 0.522045 0.227341 0.792577
467 1 0.805705 0.399328 0.943479
319 1 0.724448 0.133526 0.725952
320 1 0.662378 0.00632194 0.723862
342 1 0.743317 0.212289 0.725209
422 1 0.666425 0.0636328 0.868387
423 1 0.659697 0.0252452 0.941609
321 1 0.772507 0.103576 0.785994
424 1 0.698247 0.217251 0.938915
442 1 0.801333 0.341276 0.883233
324 1 0.832719 0.0619858 0.747189
403 1 1.00938 0.00580278 0.676816
325 1 0.888369 0.122044 0.728524
425 1 0.836974 0.0916447 0.915272
426 1 0.949659 0.125405 0.786716
427 1 0.843349 0.165976 0.877203
428 1 0.908853 0.0512067 0.913899
24 1 0.928151 0.0583012 0.993211
444 1 0.959235 0.222679 0.911855
447 1 0.874265 0.21726 0.934927
326 1 0.0867447 0.251757 0.723152
327 1 0.0252291 0.382057 0.725605
330 1 0.148708 0.430321 0.702981
329 1 0.0871152 0.420816 0.760505
345 1 0.0284991 0.304125 0.757737
328 1 0.15653 0.245149 0.770674
432 1 0.0754798 0.368195 0.903555
446 1 0.987264 0.288342 0.953965
449 1 0.0852677 0.4285 0.959324
469 1 -0.000437305 0.499343 0.835572
354 1 0.328822 0.393967 0.677961
348 1 0.867048 0.402546 0.775494
334 1 0.37235 0.277927 0.74026
335 1 0.33719 0.360958 0.752159
435 1 0.210234 0.328955 0.887345
436 1 0.291403 0.284893 0.886339
437 1 0.358217 0.327926 0.907544
434 1 0.364864 0.325867 0.99238
443 1 0.997845 0.35959 0.901082
433 1 0.221789 0.400849 0.85056
455 1 0.250718 0.455621 0.910501
456 1 0.384027 0.470508 0.857781
337 1 0.44279 0.299409 0.706973
340 1 0.587969 0.219362 0.743934
357 1 0.554463 0.420031 0.727936
360 1 0.577744 0.489684 0.691261
339 1 0.495894 0.302466 0.769912
439 1 0.608265 0.320332 0.92972
459 1 0.415983 0.496294 0.929139
457 1 0.51853 0.431617 0.854034
361 1 0.493534 0.449568 0.779774
460 1 0.582224 0.476977 0.877253
344 1 0.765939 0.372499 0.684714
343 1 0.634882 0.283173 0.760524
440 1 0.708193 0.249386 0.791191
441 1 0.683495 0.299253 0.957079
465 1 0.647852 0.419859 0.869521
463 1 0.689851 0.415748 0.802803
464 1 0.761515 0.472525 0.807269
347 1 0.840258 0.349945 0.709796
438 1 0.554186 0.278596 0.985697
50 1 0.136533 0.597162 0.0702866
48 1 0.070264 0.563107 0.0348948
51 1 0.0872882 0.631925 0.140716
165 1 0.167601 0.50007 0.262959
66 1 0.036306 0.687646 0.120782
67 1 0.0749811 0.762439 0.122196
69 1 0.154524 0.72709 0.21503
177 1 0.994361 0.643484 0.284156
269 1 0.171509 0.554987 0.323817
166 1 0.223371 0.52806 0.204349
148 1 0.363531 0.548091 0.21568
70 1 0.375581 0.63126 0.104607
71 1 0.294032 0.634516 0.102344
475 1 0.264999 0.593744 0.0374667
168 1 0.348031 0.687766 0.226983
169 1 0.295649 0.695309 0.292352
53 1 0.39433 0.555299 0.145165
56 1 0.51056 0.580466 0.0580949
152 1 0.536624 0.555278 0.242486
58 1 0.590193 0.56531 0.0658953
151 1 0.517426 0.627405 0.207728
74 1 0.520533 0.696059 0.258004
171 1 0.399496 0.750339 0.244076
172 1 0.447315 0.709476 0.29866
153 1 0.624928 0.542455 0.244003
195 1 0.583138 0.857496 0.300703
101 1 0.934343 0.963171 0.186077
176 1 0.781512 0.647378 0.305464
62 1 0.73428 0.553825 0.159652
77 1 0.61351 0.712208 0.139121
78 1 0.648317 0.714569 0.0636113
80 1 0.774652 0.658158 0.057819
155 1 0.644083 0.579886 0.316132
161 1 0.796845 0.572199 0.272379
175 1 0.712817 0.680994 0.266846
63 1 0.991358 0.524218 0.135173
64 1 0.910914 0.528154 0.0935136
159 1 0.807045 0.587735 0.191326
65 1 0.892939 0.605157 0.0674983
81 1 0.95982 0.782621 0.188683
82 1 0.894363 0.764439 0.132985
83 1 0.931572 0.761115 0.261512
178 1 0.918849 0.675815 0.271845
488 1 0.942502 0.610155 0.000170262
68 1 0.092408 0.779303 0.202901
84 1 0.0614337 0.927544 0.129886
88 1 0.179843 0.92606 0.238635
87 1 0.169226 0.902535 0.0339169
85 1 0.154522 0.820268 0.035521
86 1 0.973577 0.919163 0.125234
106 1 0.182932 0.976612 0.300996
183 1 0.974998 0.923564 0.305154
181 1 0.0597572 0.823084 0.321314
182 1 0.0481184 0.893544 0.281321
89 1 0.218096 0.767543 0.184984
72 1 0.374971 0.809628 0.154811
496 1 0.333728 0.790901 0.0247792
90 1 0.243162 0.896308 0.0749079
92 1 0.39525 0.776057 0.0867657
185 1 0.257512 0.886902 0.225486
495 1 0.308362 0.872562 0.0291241
186 1 0.250272 0.811934 0.253389
91 1 0.363872 0.978394 0.14052
190 1 0.376365 0.983641 0.222447
10 1 0.477267 0.975473 0.0687476
76 1 0.541512 0.827808 0.112408
93 1 0.585563 0.8799 0.0644274
191 1 0.432502 0.92636 0.244443
95 1 0.511675 0.94902 0.207444
75 1 0.588969 0.792089 0.161096
79 1 0.727893 0.730204 0.0675217
174 1 0.735381 0.739811 0.208689
94 1 0.623352 0.933111 0.11629
97 1 0.733088 0.923481 0.0412064
98 1 0.699745 0.90271 0.117773
194 1 0.707376 0.814894 0.230249
200 1 0.774977 0.861304 0.26063
99 1 0.897863 0.990684 0.0271605
509 1 0.854682 0.873423 0.0639449
100 1 0.841941 0.830065 0.128412
203 1 0.91612 0.908399 0.250626
250 1 0.427734 0.51214 0.337325
3 1 0.0797715 0.987062 0.0813496
61 1 0.793582 0.508761 0.0334054
47 1 0.0470762 0.501584 0.0804138
146 1 0.30202 0.492284 0.211837
150 1 0.301965 0.568383 0.342252
485 1 0.806212 0.817251 0.000785792
145 1 0.0309491 0.50682 0.360554
164 1 0.0093902 0.640403 0.367278
264 1 -0.00304558 0.773663 0.43223
170 1 0.187829 0.732231 0.411955
351 1 0.0231284 0.522668 0.64982
265 1 1 0.755191 0.51367
266 1 0.985425 0.670694 0.529576
267 1 0.0558729 0.63018 0.529988
369 1 0.114375 0.664182 0.585635
149 1 0.232105 0.539807 0.373524
297 1 0.733534 1.00138 0.40233
249 1 0.31294 0.529571 0.489265
270 1 0.367044 0.588604 0.472127
271 1 0.285849 0.72639 0.500231
268 1 0.209962 0.759921 0.487455
167 1 0.326463 0.647234 0.355071
353 1 0.296909 0.53461 0.568639
372 1 0.243257 0.595037 0.576263
374 1 0.300558 0.656554 0.606681
285 1 0.829261 0.799672 0.622381
253 1 0.489655 0.560399 0.363938
275 1 0.5017 0.537848 0.440895
255 1 0.444125 0.576294 0.498435
173 1 0.586902 0.690389 0.381274
274 1 0.51817 0.73211 0.408772
276 1 0.501593 0.693667 0.575102
277 1 0.421295 0.707624 0.597302
379 1 0.527163 0.63457 0.62497
157 1 0.630742 0.524741 0.371184
279 1 0.652248 0.714582 0.487905
278 1 0.613072 0.651128 0.448147
302 1 0.910571 0.916648 0.528071
256 1 0.655621 0.526458 0.524597
257 1 0.739516 0.500829 0.527545
260 1 0.776875 0.573144 0.502923
258 1 0.650241 0.570635 0.595988
282 1 0.783631 0.748992 0.506871
280 1 0.625863 0.708687 0.572759
281 1 0.67806 0.645408 0.593386
147 1 0.974653 0.565398 0.392812
262 1 0.814185 0.561863 0.425052
180 1 0.880532 0.710761 0.418092