ITEM: TIMESTEP
0
ITEM: NUMBER OF ATOMS
512
ITEM: BOX BOUNDS pp pp pp
1.8332206818000001e+00 2.6666779318200000e+01
1.8332206818000001e+00 2.6666779318200000e+01
1.8332206818000001e+00 2.6666779318200000e+01
ITEM: ATOMS id type xs ys zs
211 1 0.0515791 0.138215 0.122897
209 1 0.102706 0.0798829 0.159612
210 1 0.177372 0.101533 0.176422
503 1 0.153212 0.2195 0.0483713
215 1 0.0119291 0.229714 0.206289
212 1 0.173391 0.139845 0.253485
238 1 0.0479449 0.0132984 0.329013
239 1 0.187971 0.00814886 0.311837
214 1 0.148568 0.212682 0.24484
216 1 0.0634912 0.22349 0.269547
63 1 0.0784428 0.0582219 0.00929424
501 1 0.208964 0.156247 0.0488961
389 1 0.338801 0.166955 0.165737
391 1 0.375514 0.126537 0.233249
132 1 0.374607 0.0278308 0.0374761
387 1 0.282604 0.217844 0.193456
497 1 0.326065 0.195499 0.00377855
218 1 0.282057 0.19084 0.331425
130 1 0.434509 0.0448899 0.0901535
129 1 0.502019 0.00255979 0.0891157
298 1 0.569149 0.0384556 0.215853
131 1 0.563346 0.0387902 0.0357919
176 1 0.583207 0.16217 0.0589439
175 1 0.525143 0.160186 0.120372
173 1 0.45937 0.182781 0.0778354
392 1 0.452111 0.163047 0.246431
390 1 0.45377 0.212132 0.313044
299 1 0.677758 0.0545242 0.133792
297 1 0.645065 0.0709898 0.210818
464 1 0.766503 0.172774 0.0926379
463 1 0.755137 0.232455 0.0386779
174 1 0.620731 0.240411 0.0745043
462 1 0.789992 0.209621 0.169637
409 1 0.666492 0.242776 0.286464
213 1 0.994117 0.15115 0.176749
441 1 0.808467 0.0575507 0.19293
442 1 0.84849 0.0740343 0.124071
443 1 0.861791 0.0610224 0.257555
460 1 0.871842 0.21605 0.163376
444 1 0.846818 0.00944638 0.0814004
59 1 0.949351 0.113914 0.015232
504 1 0.176892 0.275755 0.102345
254 1 0.0469996 0.367575 0.0772733
252 1 0.0221251 0.36884 0.00225573
256 1 0.0772983 0.445936 0.0872076
255 1 0.161374 0.453827 0.0758171
489 1 0.0179744 0.432318 0.211668
322 1 0.17997 0.35448 0.236083
321 1 0.149838 0.344782 0.313985
323 1 0.0775939 0.385839 0.324321
502 1 0.210511 0.335813 0.0521543
385 1 0.317294 0.297678 0.206104
500 1 0.288921 0.31653 0.0497668
386 1 0.357571 0.30682 0.281555
326 1 0.217841 0.484141 0.215084
396 1 0.297261 0.460208 0.10073
398 1 0.36975 0.417933 0.11824
400 1 0.389494 0.432978 0.198513
324 1 0.240848 0.408293 0.246051
171 1 0.428666 0.255321 0.101799
170 1 0.529345 0.341387 0.0591203
169 1 0.451598 0.309164 0.0393766
413 1 0.557618 0.281104 0.217691
415 1 0.545559 0.363265 0.204526
172 1 0.584008 0.289567 0.0202877
263 1 0.541485 0.485408 0.0491669
388 1 0.434378 0.286173 0.275395
416 1 0.541519 0.391586 0.27889
411 1 0.642698 0.266197 0.211645
285 1 0.66464 0.37869 0.135172
283 1 0.741148 0.351543 0.125353
287 1 0.650628 0.451512 0.1005
281 1 0.79087 0.374766 0.184992
410 1 0.706417 0.302912 0.330897
414 1 0.619964 0.410131 0.311436
457 1 0.92808 0.25728 0.0536701
458 1 0.887929 0.2865 0.125506
491 1 0.976284 0.365462 0.216678
1 1 0.832142 0.419507 0.0320673
282 1 0.813837 0.446504 0.156951
2 1 0.907776 0.433612 0.0548573
490 1 0.961543 0.49001 0.187891
493 1 0.953082 0.352446 0.300047
495 1 0.886739 0.399045 0.311547
371 1 0.0081972 0.146572 0.426651
223 1 0.155718 0.14952 0.467349
224 1 0.177341 0.230287 0.474292
384 1 0.0269146 0.0513245 0.644339
382 1 0.0807216 0.0846028 0.585709
380 1 0.157949 0.0862684 0.615286
378 1 0.197827 0.0235658 0.581935
217 1 0.316157 0.13555 0.384219
221 1 0.223781 0.105881 0.474229
219 1 0.254846 0.0812207 0.397688
424 1 0.328236 0.0326496 0.66124
51 1 0.332324 0.182174 0.620975
422 1 0.384273 0.035704 0.595098
49 1 0.270856 0.235185 0.596646
228 1 0.43708 0.168357 0.46855
226 1 0.447896 0.083517 0.458048
225 1 0.459625 0.080446 0.372295
229 1 0.5813 0.135573 0.344446
227 1 0.541971 0.0696681 0.373555
230 1 0.5056 0.195493 0.492055
232 1 0.55634 0.238165 0.430504
420 1 0.453282 0.0669058 0.62567
418 1 0.511202 0.01409 0.652053
53 1 0.407908 0.213718 0.606904
451 1 0.7349 0.152858 0.454641
449 1 0.794163 0.12553 0.401615
231 1 0.611788 0.181125 0.403732
314 1 0.611061 0.160293 0.55105
316 1 0.603508 0.0788641 0.529102
313 1 0.608895 0.146792 0.633489
319 1 0.758309 0.0617693 0.60887
315 1 0.685325 0.165756 0.66122
453 1 0.767264 0.179456 0.528301
320 1 0.706055 0.00626363 0.577975
318 1 0.671583 0.0406473 0.506295
370 1 0.921135 0.0469556 0.439682
369 1 0.94582 0.107914 0.382624
450 1 0.806992 0.191426 0.352046
452 1 0.872281 0.244195 0.387268
373 1 0.981071 0.209956 0.466996
372 1 0.86568 0.0703517 0.498601
375 1 0.990266 0.200559 0.549336
374 1 0.902457 0.09057 0.568324
376 1 0.910401 0.173405 0.576805
222 1 0.183624 0.25892 0.399241
435 1 0.131588 0.392437 0.492841
437 1 0.0820063 0.339751 0.452204
439 1 0.000589943 0.367084 0.458704
325 1 0.0912924 0.458319 0.355465
433 1 0.149478 0.369809 0.572629
436 1 0.0346602 0.374946 0.642492
434 1 0.10611 0.419473 0.619341
220 1 0.26351 0.262371 0.367391
121 1 0.33066 0.328881 0.475525
122 1 0.291451 0.399409 0.460804
124 1 0.293124 0.424736 0.38196
126 1 0.353886 0.48512 0.375817
50 1 0.237114 0.284885 0.647466
52 1 0.267187 0.35952 0.623193
54 1 0.337274 0.376701 0.663485
37 1 0.227475 0.489033 0.55397
43 1 0.379185 0.471782 0.556381
123 1 0.412467 0.338543 0.488346
125 1 0.443546 0.328265 0.407993
128 1 0.417433 0.439677 0.334606
127 1 0.470352 0.399572 0.388205
56 1 0.409675 0.348253 0.623966
55 1 0.427419 0.271673 0.658735
161 1 0.551248 0.307532 0.57218
163 1 0.561055 0.329175 0.652185
162 1 0.550391 0.373064 0.519741
47 1 0.482398 0.477305 0.638511
45 1 0.460147 0.459475 0.56246
412 1 0.652822 0.357878 0.364396
164 1 0.624569 0.380319 0.484427
279 1 0.781194 0.491204 0.465788
277 1 0.778019 0.476937 0.378761
167 1 0.684112 0.382435 0.661368
168 1 0.720705 0.385161 0.587428
455 1 0.763535 0.265785 0.522541
166 1 0.671357 0.430456 0.536146
454 1 0.835166 0.305888 0.423267
496 1 0.909857 0.477402 0.350992
362 1 0.836507 0.317115 0.653875
456 1 0.839487 0.293633 0.504807
440 1 0.969782 0.340443 0.533171
438 1 0.976815 0.396736 0.59114
346 1 0.949233 0.497164 0.499754
355 1 0.122033 0.169466 0.719359
353 1 0.0994578 0.244743 0.681981
26 1 0.0271088 0.0627767 0.798772
62 1 0.118113 0.166938 0.934573
64 1 0.11671 0.0832416 0.935167
60 1 0.0568998 0.197567 0.891755
61 1 0.00132819 0.0495551 0.998321
312 1 0.165151 0.0508355 0.793879
357 1 0.201045 0.169806 0.738614
308 1 0.270759 0.0489454 0.878802
134 1 0.380951 0.078176 0.968584
359 1 0.225091 0.181076 0.819402
473 1 0.359962 0.173803 0.849102
474 1 0.376 0.156529 0.767909
310 1 0.248807 0.0445768 0.802067
499 1 0.252188 0.166515 0.976338
478 1 0.51137 0.142796 0.744468
476 1 0.440433 0.10568 0.765001
135 1 0.506573 0.0587524 0.920528
480 1 0.557539 0.152147 0.811659
477 1 0.476001 0.205559 0.918544
136 1 0.42809 0.0356916 0.910634
479 1 0.548366 0.2107 0.870029
475 1 0.406199 0.235616 0.877827
133 1 0.548838 0.00194225 0.963027
317 1 0.729428 0.0965356 0.683011
481 1 0.713257 0.0684018 0.996786
483 1 0.671524 0.0934482 0.924452
485 1 0.723581 0.144001 0.885507
487 1 0.761456 0.0934584 0.821956
30 1 0.945323 0.130974 0.721757
32 1 0.874464 0.0919657 0.711097
31 1 0.881522 0.012372 0.689243
58 1 0.986195 0.215837 0.929034
28 1 0.975342 0.128557 0.79877
488 1 0.823379 0.0546537 0.851713
57 1 0.934405 0.14969 0.938102
461 1 0.814405 0.215341 0.984079
365 1 0.805293 0.22274 0.794946
25 1 0.97747 0.00172844 0.83934
250 1 0.0757226 0.329536 0.950648
354 1 0.085132 0.295189 0.744481
356 1 0.151305 0.329717 0.765859
358 1 0.187759 0.307866 0.838339
249 1 0.0973334 0.395971 0.909759
9 1 0.0386985 0.460715 0.801792
251 1 0.175021 0.420297 0.937103
10 1 0.114767 0.496819 0.816673
253 1 0.160764 0.481955 0.993732
33 1 0.200105 0.497649 0.675155
360 1 0.255258 0.258635 0.834856
104 1 0.352598 0.376689 0.890381
498 1 0.320901 0.274897 0.983118
101 1 0.274307 0.485752 0.882197
103 1 0.324211 0.441733 0.930928
82 1 0.571354 0.342152 0.843575
102 1 0.433769 0.388046 0.869375
100 1 0.421907 0.423247 0.796028
84 1 0.587411 0.425861 0.844904
86 1 0.599902 0.460608 0.924377
262 1 0.439846 0.495197 0.963895
165 1 0.642059 0.316549 0.669556
361 1 0.793697 0.251594 0.67615
81 1 0.648222 0.31045 0.844296
83 1 0.669042 0.275791 0.914098
85 1 0.730726 0.328213 0.9413
363 1 0.755151 0.26493 0.749215
87 1 0.702034 0.389163 0.985538
88 1 0.684589 0.458841 0.93976
73 1 0.725915 0.472086 0.778402
364 1 0.92006 0.303251 0.680182
11 1 0.999736 0.493529 0.732053
77 1 0.832606 0.462731 0.695838
366 1 0.935537 0.345492 0.750287
368 1 0.928051 0.289146 0.817694
367 1 0.850248 0.28145 0.839334
3 1 0.838469 0.389914 0.951229
75 1 0.804146 0.494508 0.76904
5 1 0.825292 0.454176 0.901465
7 1 0.903108 0.482544 0.883794
459 1 0.876525 0.273826 0.988914
402 1 0.0407133 0.593812 0.0933357
403 1 0.168627 0.607911 0.0711752
407 1 0.188925 0.651749 0.195292
405 1 0.193441 0.677073 0.117893
401 1 0.0974714 0.619621 0.033267
408 1 0.11541 0.676799 0.230254
406 1 0.0541018 0.627834 0.216109
404 1 0.0129684 0.653986 0.144226
328 1 0.183653 0.526352 0.277924
327 1 0.100503 0.505209 0.287348
394 1 0.320359 0.53559 0.072384
393 1 0.305676 0.584718 0.138432
397 1 0.383957 0.559428 0.246535
395 1 0.373406 0.611778 0.185682
119 1 0.349443 0.716825 0.122885
117 1 0.382991 0.690535 0.0520168
18 1 0.286064 0.72502 0.283714
17 1 0.334306 0.67847 0.333273
115 1 0.322459 0.648693 0.0037387
399 1 0.438156 0.503133 0.212196
261 1 0.572888 0.561409 0.0550213
264 1 0.455884 0.506888 0.0408334
334 1 0.522328 0.646133 0.142342
332 1 0.478109 0.716901 0.16344
336 1 0.52203 0.5919 0.204978
335 1 0.586899 0.610045 0.252443
331 1 0.590429 0.728506 0.3122
333 1 0.561051 0.650867 0.323069
154 1 0.786015 0.561783 0.00702433
288 1 0.651059 0.503009 0.160484
286 1 0.72702 0.543755 0.149568
284 1 0.781316 0.509192 0.200434
508 1 0.653156 0.707641 0.0328015
512 1 0.670553 0.718365 0.165423
511 1 0.754397 0.73918 0.181023
510 1 0.677801 0.668108 0.103205
156 1 0.79981 0.625461 0.0587751
273 1 0.725897 0.591675 0.315037
506 1 0.714517 0.749841 0.00254458
4 1 0.92205 0.512323 0.0542894
158 1 0.877994 0.648297 0.0478611
181 1 0.903186 0.689658 0.228181
183 1 0.853438 0.70463 0.296066
492 1 0.950773 0.544953 0.246388
494 1 0.881425 0.527633 0.297528
69 1 0.0771799 0.77263 0.013198
431 1 0.190852 0.878233 0.239814
429 1 0.132537 0.847601 0.188678
427 1 0.0875457 0.905242 0.14362
425 1 0.132409 0.913899 0.0761253
426 1 0.167751 0.991946 0.0772439
177 1 0.00283035 0.783353 0.210605
178 1 0.00806672 0.836484 0.276321
240 1 0.119406 0.981361 0.284651
116 1 0.228542 0.802171 0.0139638
118 1 0.240496 0.795306 0.0938582
432 1 0.25359 0.910113 0.199446
430 1 0.256779 0.989242 0.175018
120 1 0.322268 0.793382 0.113606
428 1 0.245087 0.987394 0.0926415
265 1 0.388711 0.944964 0.192731
269 1 0.339378 0.99244 0.312669
268 1 0.377106 0.811348 0.236457
270 1 0.380986 0.811898 0.324685
267 1 0.405037 0.998249 0.26706
330 1 0.526183 0.778042 0.194773
266 1 0.424589 0.87121 0.205596
302 1 0.550367 0.91518 0.17977
292 1 0.459997 0.850343 0.0555079
290 1 0.524653 0.821603 0.0136781
300 1 0.565564 0.964407 0.249176
329 1 0.531019 0.777063 0.276952
507 1 0.781532 0.833767 0.087367
110 1 0.765744 0.807899 0.30365
301 1 0.715288 0.980261 0.133375
505 1 0.717865 0.830291 0.0395658
304 1 0.629496 0.882431 0.161008
303 1 0.661697 0.929014 0.0992154
509 1 0.760442 0.823252 0.166221
108 1 0.705158 0.856691 0.28064
105 1 0.706578 0.984612 0.328038
106 1 0.729733 0.937924 0.262994
71 1 0.999664 0.780805 0.0396977
179 1 0.924678 0.762399 0.191834
446 1 0.920196 0.956508 0.0897658
447 1 0.938885 0.954927 0.229695
72 1 0.964217 0.852582 0.020857
448 1 0.90655 0.916478 0.157949
445 1 0.87425 0.978587 0.271491
348 1 0.0192354 0.51414 0.464519
23 1 0.153255 0.6329 0.369095
24 1 0.148725 0.710379 0.399479
352 1 0.0156392 0.654145 0.447935
36 1 0.0948723 0.57914 0.638446
40 1 0.133438 0.564341 0.509501
38 1 0.112792 0.623024 0.560907
151 1 0.131251 0.742578 0.664546
190 1 0.336122 0.72997 0.480414
21 1 0.230219 0.617049 0.398948
19 1 0.29421 0.598655 0.351702
35 1 0.266934 0.508017 0.627326
39 1 0.215536 0.552669 0.504264
41 1 0.371171 0.539786 0.510219
42 1 0.346428 0.603757 0.555675
188 1 0.251617 0.742515 0.509566
468 1 0.535596 0.558683 0.487084
466 1 0.498831 0.572222 0.418357
465 1 0.450176 0.64096 0.435249
467 1 0.490477 0.707601 0.416716
469 1 0.536125 0.73606 0.481525
48 1 0.502467 0.559044 0.634728
46 1 0.436333 0.602751 0.657901
44 1 0.412585 0.645055 0.595866
91 1 0.548558 0.749983 0.611882
470 1 0.619198 0.589311 0.483904
275 1 0.710753 0.509788 0.338612
471 1 0.613919 0.715946 0.472426
278 1 0.775377 0.623566 0.487669
274 1 0.699375 0.642878 0.370904
276 1 0.765755 0.668356 0.41595
80 1 0.743245 0.528049 0.603403
78 1 0.693284 0.581201 0.639612
244 1 0.752071 0.730281 0.579807
472 1 0.623948 0.65725 0.526741
280 1 0.830058 0.56027 0.480978
350 1 0.999783 0.576662 0.411628
184 1 0.899727 0.7142 0.361518
351 1 0.941911 0.682479 0.484259
79 1 0.813848 0.527893 0.644697
345 1 0.949389 0.531681 0.575483
347 1 0.897684 0.596849 0.582454
349 1 0.932505 0.671342 0.563649
22 1 0.161752 0.762766 0.336956
180 1 0.00751427 0.789696 0.345229
234 1 0.0633822 0.977416 0.457689
236 1 0.024986 0.95618 0.383332
233 1 0.131566 0.934155 0.46735
147 1 0.088619 0.767405 0.536139
149 1 0.149485 0.780823 0.594075
383 1 0.0187824 0.973236 0.625197
145 1 0.0408589 0.830297 0.535062
381 1 0.082381 0.923034 0.654602
379 1 0.141556 0.914585 0.596695
20 1 0.244589 0.77881 0.343127
235 1 0.204305 0.976864 0.441991
237 1 0.213322 0.949778 0.366692
186 1 0.231264 0.811095 0.474767
272 1 0.334129 0.868535 0.365252
271 1 0.364922 0.946225 0.37818
144 1 0.260314 0.752432 0.633777
192 1 0.389524 0.75397 0.540026
187 1 0.309554 0.921505 0.512522
377 1 0.202118 0.959178 0.629899
189 1 0.369631 0.893071 0.561001
185 1 0.24113 0.873295 0.52752
204 1 0.498167 0.968166 0.487249
202 1 0.507971 0.925532 0.417639
201 1 0.587079 0.923024 0.386483
89 1 0.507235 0.815633 0.643878
206 1 0.514782 0.918063 0.550262
208 1 0.590312 0.9265 0.580384
191 1 0.40665 0.833597 0.514634
109 1 0.793858 0.93529 0.427402
205 1 0.682962 0.88251 0.482789
107 1 0.770861 0.997296 0.377941
112 1 0.79732 0.819559 0.37851
203 1 0.630097 0.862756 0.41796
246 1 0.767326 0.766199 0.50795
242 1 0.715604 0.784027 0.631657
207 1 0.638236 0.862382 0.550917
243 1 0.787452 0.901279 0.650606
111 1 0.843048 0.889863 0.374937
182 1 0.930066 0.789442 0.380534
248 1 0.846519 0.787853 0.510678
146 1 0.971779 0.809606 0.582922
148 1 0.975429 0.833421 0.663866
245 1 0.863766 0.89175 0.606694
247 1 0.851258 0.874882 0.530557
34 1 0.165264 0.574474 0.679934
12 1 0.103952 0.563737 0.870058
14 1 0.0930516 0.635069 0.836001
67 1 0.0791321 0.740493 0.93745
16 1 0.0110683 0.653878 0.83079
143 1 0.310883 0.702534 0.675452
141 1 0.271514 0.663639 0.743923
97 1 0.351253 0.528948 0.776167
99 1 0.316067 0.5512 0.851732
114 1 0.208264 0.722263 0.987454
113 1 0.2814 0.694546 0.951591
139 1 0.276283 0.703793 0.811731
95 1 0.546555 0.661894 0.708307
93 1 0.597247 0.716135 0.670662
98 1 0.432243 0.50609 0.784472
258 1 0.505258 0.581401 0.887631
260 1 0.433023 0.564046 0.920123
94 1 0.433967 0.694781 0.769032
96 1 0.510545 0.679241 0.782146
257 1 0.544778 0.63459 0.938775
289 1 0.510807 0.747013 0.97724
76 1 0.641292 0.53404 0.690504
200 1 0.786309 0.645841 0.739568
198 1 0.716931 0.683049 0.736627
74 1 0.675464 0.533954 0.767901
259 1 0.605303 0.592724 0.983652
153 1 0.738726 0.596014 0.944768
155 1 0.782795 0.619489 0.881973
196 1 0.70421 0.729015 0.808256
160 1 0.873012 0.719357 0.99809
13 1 0.944534 0.548018 0.757922
199 1 0.83975 0.696079 0.697971
15 1 0.975894 0.621266 0.748756
8 1 0.926782 0.547739 0.926958
6 1 0.97292 0.527242 0.992454
197 1 0.892716 0.721946 0.753274
159 1 0.88412 0.698017 0.924988
157 1 0.808263 0.69757 0.887172
150 1 0.0105089 0.769841 0.707875
152 1 0.0860173 0.785659 0.718018
65 1 0.0717986 0.805835 0.887944
311 1 0.144361 0.970074 0.786626
309 1 0.10889 0.942542 0.855278
307 1 0.16677 0.899321 0.901565
142 1 0.277443 0.828143 0.676063
423 1 0.337527 0.962592 0.706044
140 1 0.214324 0.856836 0.727858
137 1 0.219221 0.758981 0.833426
293 1 0.395702 0.766574 0.900659
138 1 0.239026 0.83925 0.808824
295 1 0.370987 0.841172 0.885312
296 1 0.355975 0.878285 0.962737
306 1 0.283248 0.973845 0.911214
305 1 0.214653 0.944693 0.948907
421 1 0.388024 0.968144 0.778803
417 1 0.512337 0.998189 0.736235
90 1 0.425381 0.788285 0.668944
92 1 0.428501 0.777977 0.751749
291 1 0.482093 0.756584 0.899414
337 1 0.56048 0.849031 0.755113
340 1 0.570907 0.883108 0.884619
419 1 0.46182 0.937078 0.760966
338 1 0.580961 0.820878 0.832898
294 1 0.42167 0.913492 0.998215
341 1 0.64968 0.93449 0.704097
339 1 0.628571 0.852174 0.709963
241 1 0.76748 0.828803 0.676663
194 1 0.73104 0.806722 0.805785
482 1 0.73303 0.991632 0.988287
343 1 0.701256 0.947401 0.766732
342 1 0.650959 0.913474 0.884292
344 1 0.663754 0.974045 0.833003
29 1 0.87985 0.96146 0.755577
27 1 0.958398 0.94727 0.777165
66 1 0.992205 0.808865 0.856992
193 1 0.811464 0.809473 0.835556
68 1 0.949348 0.869698 0.891139
70 1 0.91212 0.837035 0.960339
484 1 0.809384 0.984352 0.963468
486 1 0.811974 0.974051 0.879959
195 1 0.869138 0.802271 0.773758
ITEM: TIMESTEP
250
ITEM: NUMBER OF ATOMS
512
ITEM: BOX BOUNDS pp pp pp
1.8332206818000001e+00 2.6666779318200000e+01
1.8332206818000001e+00 2.6666779318200000e+01
1.8332206818000001e+00 2.6666779318200000e+01
ITEM: ATOMS id type xs ys zs
211 1 0.0439701 0.105371 0.139431
209 1 0.100133 0.057625 0.175767
210 1 0.176 0.107029 0.204287
503 1 0.144592 0.203329 0.0445492
215 1 0.0220617 0.215272 0.212326
212 1 0.166042 0.127581 0.284542
238 1 0.0613129 0.027683 0.331765
269 1 0.351572 0.00335378 0.33185
214 1 0.141531 0.211153 0.279197
216 1 0.0607638 0.21163 0.287592
267 1 0.414103 -0.000864862 0.279988
501 1 0.18689 0.13479 0.0565597
389 1 0.32391 0.16061 0.152025
391 1 0.372185 0.12436 0.209613
132 1 0.380289 0.0253921 0.01737
387 1 0.268801 0.215762 0.185495
497 1 0.323438 0.167011 0.0162327
240 1 0.123347 0.0106052 0.28424
130 1 0.421375 0.0219017 0.0848684
495 1 0.87223 0.372643 0.320002
298 1 0.548227 0.0609027 0.212948
493 1 0.930709 0.328435 0.277964
176 1 0.578735 0.157092 0.021758
175 1 0.52273 0.139061 0.0887581
173 1 0.448373 0.172681 0.0836948
392 1 0.451198 0.157138 0.213289
390 1 0.44077 0.198921 0.285681
299 1 0.653598 0.0733008 0.122153
297 1 0.628026 0.092012 0.199852
464 1 0.75477 0.170138 0.119741
463 1 0.743368 0.188642 0.0418343
174 1 0.612 0.231692 0.0324629
462 1 0.778031 0.238268 0.167626
409 1 0.682861 0.256314 0.298282
213 1 0.982491 0.149861 0.192373
441 1 0.840764 0.0554536 0.215998
442 1 0.853014 0.0748342 0.136469
443 1 0.912403 0.0393336 0.264006
460 1 0.858284 0.245784 0.167827
444 1 0.836205 0.00278407 0.0923596
59 1 0.967787 0.105293 0.0155766
504 1 0.167186 0.269292 0.0950907
254 1 0.0506176 0.363635 0.0724334
2 1 0.922983 0.453218 0.0720037
256 1 0.0656793 0.448794 0.0721384
255 1 0.144633 0.464202 0.0670984
489 1 0.989417 0.433914 0.190088
322 1 0.152775 0.347973 0.206581
321 1 0.126277 0.345218 0.288057
323 1 0.0631896 0.402142 0.297145
502 1 0.213596 0.327971 0.0456826
385 1 0.31658 0.286799 0.19165
500 1 0.294081 0.301592 0.0432338
386 1 0.347898 0.295419 0.26973
326 1 0.176717 0.476436 0.183093
396 1 0.322338 0.431666 0.0948729
398 1 0.402994 0.415941 0.116083
400 1 0.407598 0.419722 0.195907
324 1 0.214979 0.403602 0.187535
171 1 0.447922 0.257045 0.0916972
170 1 0.518545 0.331424 0.0194959
169 1 0.444126 0.300811 0.0212842
413 1 0.577747 0.245271 0.211028
415 1 0.549385 0.316553 0.174144
282 1 0.843188 0.465025 0.210833
399 1 0.443868 0.489079 0.226693
388 1 0.429295 0.286806 0.278323
416 1 0.530426 0.367144 0.241795
411 1 0.659508 0.241171 0.218868
285 1 0.66889 0.392747 0.144925
283 1 0.753133 0.373204 0.139677
287 1 0.660174 0.471687 0.117448
281 1 0.788584 0.389246 0.213771
410 1 0.702721 0.337897 0.306241
414 1 0.599973 0.410628 0.269837
457 1 0.911578 0.25635 0.0361172
458 1 0.882776 0.295134 0.108244
491 1 0.932525 0.365227 0.204527
1 1 0.864641 0.411607 0.0195735
450 1 0.809562 0.195855 0.331641
371 1 0.0175707 0.157971 0.406637
223 1 0.16344 0.151615 0.458186
224 1 0.163632 0.233479 0.473577
384 1 0.0609854 0.0843213 0.633638
382 1 0.118532 0.118349 0.582982
380 1 0.19705 0.0972462 0.609505
378 1 0.215094 0.0226589 0.58394
217 1 0.319115 0.14441 0.391608
221 1 0.227871 0.114454 0.484423
219 1 0.258469 0.0916818 0.414515
424 1 0.359853 0.0531494 0.627463
51 1 0.31828 0.187244 0.636716
422 1 0.425661 0.0354004 0.582449
49 1 0.26249 0.236228 0.609987
228 1 0.429752 0.184392 0.469034
226 1 0.431023 0.102695 0.452623
225 1 0.454762 0.0783077 0.376302
229 1 0.561678 0.152772 0.334309
227 1 0.534969 0.0778284 0.362803
230 1 0.50563 0.207018 0.487329
232 1 0.541613 0.255869 0.426463
420 1 0.484181 0.0745253 0.629499
418 1 0.533873 0.0105853 0.65109
53 1 0.400891 0.211656 0.611307
451 1 0.723465 0.156736 0.418501
449 1 0.784427 0.128004 0.373003
231 1 0.593147 0.198494 0.402444
314 1 0.620134 0.163142 0.580956
316 1 0.592026 0.0938851 0.550122
313 1 0.629059 0.164006 0.664372
319 1 0.754174 0.0392348 0.610862
438 1 0.999828 0.400953 0.571088
453 1 0.74659 0.166173 0.498312
440 1 0.971159 0.363508 0.501201
318 1 0.655129 0.0534823 0.514404
370 1 0.940488 0.0522341 0.405115
369 1 0.95289 0.127266 0.365546
383 1 0.0422464 0.0129448 0.597439
452 1 0.867232 0.242225 0.37476
373 1 -0.00023221 0.209283 0.47802
372 1 0.874586 0.0551335 0.460224
375 1 0.996851 0.170613 0.548995
374 1 0.921132 0.0643146 0.526929
376 1 0.916362 0.142385 0.561281
222 1 0.166728 0.27114 0.391615
435 1 0.144682 0.403719 0.466485
437 1 0.080548 0.372977 0.425178
439 1 0.0139769 0.411858 0.4385
325 1 0.087105 0.470786 0.336924
433 1 0.165864 0.349818 0.532398
436 1 0.0528537 0.347864 0.608774
434 1 0.130787 0.380489 0.59935
220 1 0.241609 0.270569 0.377275
121 1 0.290419 0.333922 0.465497
122 1 0.285317 0.412227 0.443279
124 1 0.324044 0.420192 0.364341
126 1 0.384383 0.468617 0.377591
50 1 0.234798 0.297682 0.656955
52 1 0.286437 0.361686 0.628988
80 1 0.771606 0.498514 0.621537
37 1 0.245227 0.493957 0.565099
43 1 0.415598 0.454447 0.523537
123 1 0.366252 0.330507 0.507503
125 1 0.422151 0.317462 0.445576
128 1 0.445267 0.420746 0.362357
127 1 0.470379 0.386676 0.429675
56 1 0.421264 0.333857 0.645786
55 1 0.436322 0.254296 0.673214
161 1 0.559611 0.278027 0.614352
456 1 0.834456 0.269615 0.506271
162 1 0.564938 0.330131 0.551412
47 1 0.484248 0.466919 0.640384
45 1 0.494503 0.46291 0.558902
412 1 0.627515 0.3686 0.334868
164 1 0.63891 0.321223 0.509685
362 1 0.869692 0.288923 0.635079
277 1 0.740557 0.48243 0.401834
496 1 0.90295 0.427338 0.371512
168 1 0.726414 0.365823 0.605514
455 1 0.757101 0.244007 0.514742
166 1 0.679019 0.385784 0.542105
454 1 0.834469 0.305775 0.428983
31 1 0.883357 0.0406968 0.664377
218 1 0.28306 0.198669 0.340459
355 1 0.103331 0.186267 0.735558
353 1 0.0968063 0.252081 0.694229
26 1 0.0232451 0.0862936 0.794515
62 1 0.125195 0.137648 0.90374
64 1 0.108329 0.0576834 0.899067
60 1 0.0612654 0.188986 0.878273
163 1 0.566147 0.33359 0.680362
312 1 0.202099 0.0234927 0.777178
357 1 0.18845 0.178282 0.743948
308 1 0.283505 0.0435028 0.887254
134 1 0.409567 0.0858196 0.966911
359 1 0.229503 0.208254 0.805065
473 1 0.362947 0.182665 0.86855
474 1 0.365077 0.175173 0.78036
310 1 0.283701 0.0188016 0.808236
315 1 0.706438 0.137979 0.688562
478 1 0.490722 0.154755 0.738735
476 1 0.4134 0.11264 0.758655
135 1 0.531066 0.0421848 0.923045
480 1 0.54383 0.143181 0.807521
477 1 0.486828 0.194174 0.909887
136 1 0.448138 0.0422535 0.905042
479 1 0.540712 0.211011 0.849287
475 1 0.419307 0.236149 0.889293
459 1 0.854375 0.245962 0.983339
317 1 0.713716 0.0591331 0.680452
481 1 0.713067 0.0712964 0.99161
483 1 0.67075 0.119318 0.936406
485 1 0.723545 0.150096 0.885339
487 1 0.737128 0.0924382 0.824411
30 1 0.924155 0.159899 0.727556
32 1 0.857667 0.107212 0.712904
25 1 0.996305 0.012272 0.799477
58 1 0.0130266 0.208124 0.9392
28 1 0.955102 0.139506 0.800916
488 1 0.815835 0.0597965 0.844144
57 1 0.952247 0.155526 0.952341
461 1 0.818609 0.17304 1.00306
365 1 0.801217 0.241527 0.80558
172 1 0.576783 0.286413 0.981645
250 1 0.0759051 0.329939 0.934098
354 1 0.0745224 0.308249 0.747285
356 1 0.137101 0.362014 0.77876
358 1 0.184255 0.319267 0.832447
249 1 0.0909673 0.413908 0.907772
9 1 0.0291005 0.479083 0.804315
251 1 0.164345 0.427685 0.931603
5 1 0.860771 0.453425 0.897542
253 1 0.154452 0.48767 0.987748
33 1 0.201222 0.487191 0.698676
360 1 0.250419 0.290241 0.792749
104 1 0.353439 0.371992 0.872801
498 1 0.313498 0.246793 0.984626
101 1 0.26494 0.475038 0.853323
103 1 0.301458 0.441336 0.916509
82 1 0.59899 0.347184 0.842493
102 1 0.427275 0.399435 0.854009
100 1 0.436765 0.423176 0.777082
84 1 0.596291 0.427132 0.86518
86 1 0.59522 0.429099 0.94507
63 1 0.0887712 0.0481241 0.981211
165 1 0.644763 0.329986 0.708575
361 1 0.802836 0.247388 0.670711
81 1 0.676369 0.322082 0.829028
83 1 0.708514 0.280414 0.895263
85 1 0.756723 0.33971 0.940398
363 1 0.759916 0.270064 0.735454
75 1 0.785444 0.467323 0.802934
88 1 0.671742 0.439 0.970871
73 1 0.69963 0.478089 0.800597
364 1 0.940059 0.274576 0.678165
3 1 0.890216 0.391443 0.944948
77 1 0.811161 0.426969 0.738859
366 1 0.94148 0.330672 0.744704
368 1 0.931749 0.284977 0.809317
367 1 0.855161 0.29559 0.839566
87 1 0.703464 0.371031 0.999358
499 1 0.252874 0.127278 1.00001
252 1 0.0211749 0.337701 0.997788
61 1 0.0034321 0.0311425 0.987105
54 1 0.354762 0.369459 0.677249
79 1 0.831718 0.488912 0.685756
167 1 0.691814 0.396355 0.67591
402 1 0.0485349 0.596009 0.0894084
403 1 0.179063 0.617699 0.0700148
407 1 0.177243 0.648749 0.199804
405 1 0.206465 0.670791 0.127287
401 1 0.103567 0.63649 0.0445429
408 1 0.106055 0.692463 0.217697
406 1 0.0386926 0.635329 0.212464
404 1 0.00609058 0.649501 0.136805
328 1 0.188459 0.511945 0.2552
327 1 0.111116 0.525611 0.275881
394 1 0.304408 0.514554 0.0795988
393 1 0.296387 0.541072 0.153743
397 1 0.381576 0.535962 0.248865
395 1 0.363339 0.583016 0.18374
119 1 0.304261 0.754436 0.143068
117 1 0.355257 0.719215 0.092644
18 1 0.283699 0.7365 0.284623
17 1 0.316338 0.675915 0.329723
115 1 0.30686 0.661248 0.0486065
445 1 0.929348 0.962528 0.255765
261 1 0.592766 0.580614 0.0376904
448 1 0.943992 0.917086 0.127846
334 1 0.522352 0.660071 0.131268
332 1 0.476026 0.719892 0.165744
336 1 0.524652 0.600053 0.188081
335 1 0.587849 0.603625 0.243373
331 1 0.599073 0.72333 0.30115
333 1 0.57493 0.642016 0.311074
154 1 0.804998 0.558848 0.0250902
288 1 0.66724 0.528216 0.17987
286 1 0.737092 0.561276 0.164681
284 1 0.801881 0.53158 0.229216
508 1 0.636489 0.737351 0.0645762
512 1 0.675099 0.700108 0.191135
511 1 0.753584 0.720752 0.19436
510 1 0.655853 0.674252 0.113391
156 1 0.807864 0.623788 0.0736192
273 1 0.710217 0.585117 0.316458
506 1 0.714518 0.748769 0.0137517
4 1 0.927099 0.525862 0.0445833
158 1 0.872887 0.681108 0.056003
181 1 0.890445 0.679999 0.236673
183 1 0.858082 0.717588 0.303332
492 1 0.955261 0.523944 0.296711
494 1 0.888715 0.502758 0.338566
490 1 0.955652 0.497812 0.214187
431 1 0.15781 0.878237 0.242218
429 1 0.122173 0.841194 0.17987
427 1 0.0904878 0.909548 0.142706
425 1 0.128417 0.922973 0.075272
426 1 0.187103 0.987719 0.0841085
177 1 0.988492 0.762299 0.196992
178 1 0.99384 0.832634 0.241988
294 1 0.405272 0.864 0.0291154
263 1 0.548122 0.512027 0.0533537
118 1 0.212687 0.824807 0.0621576
432 1 0.240496 0.881813 0.228535
430 1 0.253541 0.962316 0.198764
120 1 0.287753 0.825746 0.10525
428 1 0.262787 0.977842 0.118221
265 1 0.387695 0.951736 0.215027
264 1 0.469379 0.527789 0.047571
268 1 0.390494 0.828121 0.266055
131 1 0.556443 0.991728 0.0419993
72 1 0.99223 0.866805 0.032977
330 1 0.534869 0.77773 0.196228
266 1 0.428452 0.877214 0.217616
302 1 0.543866 0.924825 0.211766
292 1 0.460863 0.818858 0.0674841
290 1 0.523767 0.796176 0.012789
300 1 0.550787 0.989427 0.25574
329 1 0.530048 0.759695 0.274614
507 1 0.807851 0.785995 0.0945575
110 1 0.759118 0.813918 0.319568
301 1 0.708286 0.991645 0.122779
505 1 0.755139 0.813184 0.0329379
304 1 0.621629 0.889401 0.174986
303 1 0.655232 0.929326 0.113991
509 1 0.767538 0.801541 0.162906
108 1 0.685329 0.849578 0.300713
105 1 0.708492 0.984251 0.298248
106 1 0.702149 0.913739 0.25508
71 1 0.0112718 0.787933 0.0402975
179 1 0.907287 0.742274 0.183089
446 1 0.913466 0.974777 0.0729969
447 1 0.985674 0.95799 0.190868
129 1 0.475187 0.958572 0.083048
19 1 0.264241 0.613085 0.312092
239 1 0.199891 0.996989 0.327551
22 1 0.1556 0.752811 0.336878
180 1 0.011006 0.813592 0.319002
348 1 0.0183936 0.560565 0.447422
23 1 0.142229 0.6152 0.375967
24 1 0.142981 0.696661 0.396113
352 1 -0.00246992 0.681003 0.455566
279 1 0.775071 0.502615 0.471356
40 1 0.144142 0.598321 0.534653
38 1 0.140395 0.630707 0.61103
346 1 0.96618 0.511749 0.504534
190 1 0.321379 0.727599 0.455867
21 1 0.223413 0.590561 0.381847
146 1 0.951124 0.79899 0.638659
247 1 0.840886 0.890887 0.559631
39 1 0.221669 0.569895 0.540567
41 1 0.403604 0.531511 0.493397
42 1 0.362539 0.574221 0.545426
188 1 0.249347 0.721984 0.480799
468 1 0.56424 0.590738 0.501783
466 1 0.511908 0.596942 0.434046
465 1 0.448259 0.643413 0.448541
467 1 0.468963 0.722066 0.411124
469 1 0.513043 0.78653 0.449447
48 1 0.497558 0.547942 0.663615
46 1 0.432312 0.602747 0.662072
44 1 0.422749 0.633316 0.58376
91 1 0.534548 0.73418 0.621272
470 1 0.626305 0.647215 0.484284
275 1 0.675453 0.532877 0.373921
471 1 0.595422 0.767965 0.450292
278 1 0.793533 0.635584 0.465874
274 1 0.704146 0.655515 0.361288
276 1 0.777437 0.675241 0.39497
248 1 0.853346 0.806613 0.552068
78 1 0.716411 0.55783 0.63514
244 1 0.749424 0.74174 0.586419
472 1 0.623604 0.722549 0.520302
280 1 0.827033 0.567232 0.44526
350 1 0.979896 0.619111 0.407564
184 1 0.913579 0.725871 0.363992
351 1 0.932199 0.704254 0.49902
182 1 0.940215 0.805723 0.360268
345 1 0.962038 0.543293 0.580837
347 1 0.902979 0.604286 0.578466
349 1 0.948536 0.672372 0.578057
35 1 0.26532 0.507791 0.648296
320 1 0.695228 0.997622 0.568679
234 1 0.0326809 0.949435 0.422446
236 1 0.0152499 0.960545 0.346483
233 1 0.0938038 0.891304 0.434257
147 1 0.0517469 0.751361 0.554658
149 1 0.118811 0.776588 0.595361